 Entering Link 1 = C:\G16W\l1.exe PID=     14768.
  
 Copyright (c) 1988-2019, Gaussian, Inc.  All Rights Reserved.
  
 This is part of the Gaussian(R) 16 program.  It is based on
 the Gaussian(R) 09 system (copyright 2009, Gaussian, Inc.),
 the Gaussian(R) 03 system (copyright 2003, Gaussian, Inc.),
 the Gaussian(R) 98 system (copyright 1998, Gaussian, Inc.),
 the Gaussian(R) 94 system (copyright 1995, Gaussian, Inc.),
 the Gaussian 92(TM) system (copyright 1992, Gaussian, Inc.),
 the Gaussian 90(TM) system (copyright 1990, Gaussian, Inc.),
 the Gaussian 88(TM) system (copyright 1988, Gaussian, Inc.),
 the Gaussian 86(TM) system (copyright 1986, Carnegie Mellon
 University), and the Gaussian 82(TM) system (copyright 1983,
 Carnegie Mellon University). Gaussian is a federally registered
 trademark of Gaussian, Inc.
  
 This software contains proprietary and confidential information,
 including trade secrets, belonging to Gaussian, Inc.
  
 This software is provided under written license and may be
 used, copied, transmitted, or stored only in accord with that
 written license.
  
 The following legend is applicable only to US Government
 contracts under FAR:
  
                    RESTRICTED RIGHTS LEGEND
  
 Use, reproduction and disclosure by the US Government is
 subject to restrictions as set forth in subparagraphs (a)
 and (c) of the Commercial Computer Software - Restricted
 Rights clause in FAR 52.227-19.
  
 Gaussian, Inc.
 340 Quinnipiac St., Bldg. 40, Wallingford CT 06492
  
  
 ---------------------------------------------------------------
 Warning -- This program may not be used in any manner that
 competes with the business of Gaussian, Inc. or will provide
 assistance to any competitor of Gaussian, Inc.  The licensee
 of this program is prohibited from giving any competitor of
 Gaussian, Inc. access to this program.  By using this program,
 the user acknowledges that Gaussian, Inc. is engaged in the
 business of creating and licensing software in the field of
 computational chemistry and represents and warrants to the
 licensee that it is not a competitor of Gaussian, Inc. and that
 it will not use this program in any manner prohibited above.
 ---------------------------------------------------------------
  

 Cite this work as:
 Gaussian 16, Revision C.01,
 M. J. Frisch, G. W. Trucks, H. B. Schlegel, G. E. Scuseria, 
 M. A. Robb, J. R. Cheeseman, G. Scalmani, V. Barone, 
 G. A. Petersson, H. Nakatsuji, X. Li, M. Caricato, A. V. Marenich, 
 J. Bloino, B. G. Janesko, R. Gomperts, B. Mennucci, H. P. Hratchian, 
 J. V. Ortiz, A. F. Izmaylov, J. L. Sonnenberg, D. Williams-Young, 
 F. Ding, F. Lipparini, F. Egidi, J. Goings, B. Peng, A. Petrone, 
 T. Henderson, D. Ranasinghe, V. G. Zakrzewski, J. Gao, N. Rega, 
 G. Zheng, W. Liang, M. Hada, M. Ehara, K. Toyota, R. Fukuda, 
 J. Hasegawa, M. Ishida, T. Nakajima, Y. Honda, O. Kitao, H. Nakai, 
 T. Vreven, K. Throssell, J. A. Montgomery, Jr., J. E. Peralta, 
 F. Ogliaro, M. J. Bearpark, J. J. Heyd, E. N. Brothers, K. N. Kudin, 
 V. N. Staroverov, T. A. Keith, R. Kobayashi, J. Normand, 
 K. Raghavachari, A. P. Rendell, J. C. Burant, S. S. Iyengar, 
 J. Tomasi, M. Cossi, J. M. Millam, M. Klene, C. Adamo, R. Cammi, 
 J. W. Ochterski, R. L. Martin, K. Morokuma, O. Farkas, 
 J. B. Foresman, and D. J. Fox, Gaussian, Inc., Wallingford CT, 2019.
 
 ******************************************
 Gaussian 16:  EM64W-G16RevC.01 30-May-2019
                16-Aug-2023 
 ******************************************
 %nprocshared=4
 Will use up to    4 processors via shared memory.
 %mem=4GB
 %chk=C:\Users\jared\Desktop\spectras\4_5-IMINE-PYRENE\no_solvent\no_solvent_4_5-
 IMINE-PYRENE.chk
 --------------------------------------------------
 # freq=raman b3lyp/6-311++g(d,p) geom=connectivity
 --------------------------------------------------
 1/10=4,30=1,38=1,57=2/1,3;
 2/12=2,17=6,18=5,40=1/2;
 3/5=4,6=6,7=1111,11=2,25=1,30=1,71=2,74=-5,140=1/1,2,3;
 4//1;
 5/5=2,38=5,98=1/2;
 8/6=4,10=90,11=11/1;
 10/13=10,15=4/2;
 11/6=3,8=1,9=11,15=111,16=1/1,2,10;
 10/6=1/2;
 6/7=2,8=2,9=2,10=2,28=1/1;
 7/8=1,10=1,25=1/1,2,3,16;
 1/10=4,30=1/3;
 99//99;
 -------------------
 Title Card Required
 -------------------
 Symbolic Z-matrix:
 Charge =  0 Multiplicity = 1
 C                    -3.53511  -0.4734   0. 
 C                    -2.82973  -1.66172  0. 
 C                    -1.42026  -1.66353  0. 
 C                    -0.72205  -0.42371   0. 
 C                    -1.46079   0.78559   0. 
 C                    -2.85153   0.74667   0. 
 C                    -0.67859  -2.89134  0. 
 C                     0.72205  -0.42371   0. 
 C                     1.42026  -1.66353  0. 
 C                     0.67859  -2.89134  0. 
 C                     2.82973  -1.66172   0. 
 H                     3.35457  -2.61132  0. 
 C                     3.53511  -0.4734    0. 
 C                     2.85153   0.74667   0. 
 C                     1.46079   0.78559   0. 
 C                     0.76505   2.09593   0. 
 C                    -0.76505   2.09593   0. 
 H                    -1.22917  -3.82596  0. 
 H                    -4.61902  -0.4826   0. 
 H                    -3.35457  -2.61132  0. 
 H                    -3.39224   1.68402   0. 
 H                     1.22917  -3.82596  0. 
 H                     4.61902  -0.4826    0. 
 H                     3.39224   1.68402   0. 
 N                     1.46776   3.16291  0. 
 H                     0.89404   4.00848  0. 
 N                    -1.46776   3.16291   0. 
 H                    -0.89404   4.00848  0. 
 

 GradGradGradGradGradGradGradGradGradGradGradGradGradGradGradGradGradGrad
 Berny optimization.
 Initialization pass.
 Trust Radius=3.00D-01 FncErr=1.00D-07 GrdErr=1.00D-07 EigMax=2.50D+02 EigMin=1.00D-04
 Number of steps in this run=      2 maximum allowed number of steps=      2.
 GradGradGradGradGradGradGradGradGradGradGradGradGradGradGradGradGradGrad

                          Input orientation:                          
 ---------------------------------------------------------------------
 Center     Atomic      Atomic             Coordinates (Angstroms)
 Number     Number       Type             X           Y           Z
 ---------------------------------------------------------------------
      1          6           0       -3.535106   -0.473397    0.000000
      2          6           0       -2.829733   -1.661718    0.000000
      3          6           0       -1.420258   -1.663526    0.000000
      4          6           0       -0.722050   -0.423711    0.000000
      5          6           0       -1.460790    0.785588    0.000001
      6          6           0       -2.851531    0.746673    0.000001
      7          6           0       -0.678595   -2.891336   -0.000001
      8          6           0        0.722050   -0.423711    0.000000
      9          6           0        1.420258   -1.663526    0.000000
     10          6           0        0.678595   -2.891336   -0.000001
     11          6           0        2.829733   -1.661718    0.000000
     12          1           0        3.354573   -2.611321    0.000000
     13          6           0        3.535106   -0.473397    0.000001
     14          6           0        2.851531    0.746673    0.000001
     15          6           0        1.460790    0.785588    0.000001
     16          6           0        0.765048    2.095930    0.000001
     17          6           0       -0.765048    2.095930    0.000001
     18          1           0       -1.229174   -3.825962   -0.000001
     19          1           0       -4.619022   -0.482600    0.000000
     20          1           0       -3.354573   -2.611321   -0.000001
     21          1           0       -3.392240    1.684018    0.000001
     22          1           0        1.229174   -3.825962   -0.000001
     23          1           0        4.619022   -0.482600    0.000001
     24          1           0        3.392240    1.684018    0.000001
     25          7           0        1.467758    3.162910   -0.000003
     26          1           0        0.894039    4.008482   -0.000004
     27          7           0       -1.467758    3.162910    0.000000
     28          1           0       -0.894039    4.008482   -0.000001
 ---------------------------------------------------------------------
                    Distance matrix (angstroms):
                    1          2          3          4          5
     1  C    0.000000
     2  C    1.381904   0.000000
     3  C    2.426724   1.409476   0.000000
     4  C    2.813495   2.444379   1.422897   0.000000
     5  C    2.426485   2.804159   2.449449   1.417088   0.000000
     6  C    1.398516   2.408490   2.803142   2.429915   1.391285
     7  C    3.742471   2.477772   1.434427   2.468008   3.759202
     8  C    4.257446   3.761359   2.475202   1.444100   2.495434
     9  C    5.096277   4.249991   2.840515   2.475202   3.781348
    10  C    4.858159   3.717569   2.431604   2.837425   4.254026
    11  C    6.474819   5.659465   4.249991   3.761359   4.939422
    12  H    7.213765   6.256787   4.867990   4.626500   5.892937
    13  C    7.070212   6.474819   5.096277   4.257446   5.152089
    14  C    6.502130   6.170665   4.904817   3.760356   4.312496
    15  C    5.152089   4.939422   3.781348   2.495434   2.921580
    16  C    5.009268   5.200228   4.348456   2.925756   2.582896
    17  C    3.778182   4.287521   3.816124   2.520007   1.483595
    18  H    4.069031   2.691791   2.170862   3.439839   4.617362
    19  H    1.083955   2.142866   3.409791   3.897416   3.403341
    20  H    2.145533   1.084990   2.154041   3.422838   3.889139
    21  H    2.162140   3.392693   3.885198   3.401828   2.130183
    22  H    5.825638   4.599856   3.419886   3.922065   5.338754
    23  H    8.154133   7.541502   6.153656   5.341396   6.210669
    24  H    7.255520   7.064481   5.862268   4.622759   4.935492
    25  N    6.184770   6.461073   5.624510   4.202274   3.772009
    26  H    6.301156   6.783630   6.125981   4.717634   3.991524
    27  N    4.182901   5.013184   4.826670   3.663322   2.377333
    28  H    5.202160   5.991500   5.696365   4.435528   3.272347
                    6          7          8          9         10
     6  C    0.000000
     7  C    4.237542   0.000000
     8  C    3.760356   2.837425   0.000000
     9  C    4.904817   2.431604   1.422897   0.000000
    10  C    5.069211   1.357189   2.468008   1.434427   0.000000
    11  C    6.170665   3.717569   2.444379   1.409476   2.477772
    12  H    7.056334   4.042877   3.422838   2.154041   2.690589
    13  C    6.502130   4.858159   2.813495   2.426724   3.742471
    14  C    5.703061   5.069211   2.429915   2.803142   4.237542
    15  C    4.312496   4.254026   1.417088   2.449449   3.759202
    16  C    3.860069   5.192006   2.520007   3.816124   4.988015
    17  C    2.484734   4.988015   2.925756   4.348456   5.192006
    18  H    4.851910   1.084741   3.922065   3.419886   2.124407
    19  H    2.152937   4.618330   5.341396   6.153656   5.819514
    20  H    3.395464   2.690589   4.626500   4.867990   4.042877
    21  H    1.082119   5.319562   4.622759   5.862268   6.124179
    22  H    6.128715   2.124407   3.439839   2.170862   1.084741
    23  H    7.571015   5.819514   3.897416   3.409791   4.618330
    24  H    6.313738   6.124179   3.401828   3.885198   5.319562
    25  N    4.949187   6.423451   3.663322   4.826670   6.105463
    26  H    4.966758   7.076769   4.435528   5.696365   6.903181
    27  N    2.784426   6.105463   4.202274   5.624510   6.423451
    28  H    3.804099   6.903181   4.717634   6.125981   7.076769
                   11         12         13         14         15
    11  C    0.000000
    12  H    1.084990   0.000000
    13  C    1.381904   2.145533   0.000000
    14  C    2.408490   3.395464   1.398516   0.000000
    15  C    2.804159   3.889139   2.426485   1.391285   0.000000
    16  C    4.287521   5.372509   3.778182   2.484734   1.483595
    17  C    5.200228   6.255357   5.009268   3.860069   2.582896
    18  H    4.599856   4.741951   5.825638   6.128715   5.338754
    19  H    7.541502   8.252858   8.154133   7.571015   6.210669
    20  H    6.256787   6.709147   7.213765   7.056334   5.892937
    21  H    7.064481   7.998089   7.255520   6.313738   4.935492
    22  H    2.691791   2.447994   4.069031   4.851910   4.617362
    23  H    2.142866   2.475940   1.083955   2.152937   3.403341
    24  H    3.392693   4.295504   2.162140   1.082119   2.130183
    25  N    5.013184   6.074687   4.182901   2.784426   2.377333
    26  H    5.991500   7.062295   5.202160   3.804099   3.272347
    27  N    6.461073   7.523073   6.184770   4.949187   3.772009
    28  H    6.783630   7.865907   6.301156   4.966758   3.991524
                   16         17         18         19         20
    16  C    0.000000
    17  C    1.530096   0.000000
    18  H    6.248658   5.940052   0.000000
    19  H    5.969675   4.637017   4.761211   0.000000
    20  H    6.255357   5.372509   2.447994   2.475940   0.000000
    21  H    4.177645   2.659287   5.919353   2.489825   4.295504
    22  H    5.940052   6.248658   2.458348   6.736428   4.741951
    23  H    4.637017   5.969675   6.736428   9.238043   8.252858
    24  H    2.659287   4.177645   7.191478   8.299069   7.998089
    25  N    1.277595   2.474645   7.491180   7.094972   7.523073
    26  H    1.916897   2.531882   8.117053   7.110812   7.865907
    27  N    2.474645   1.277595   6.992943   4.818735   6.074687
    28  H    2.531882   1.916897   7.841608   5.834836   7.062295
                   21         22         23         24         25
    21  H    0.000000
    22  H    7.191478   0.000000
    23  H    8.299069   4.761211   0.000000
    24  H    6.784480   5.919353   2.489825   0.000000
    25  N    5.080030   6.992943   4.818735   2.427088   0.000000
    26  H    4.875994   7.841608   5.834836   3.412351   1.021834
    27  N    2.427088   7.491180   7.094972   5.080030   2.935515
    28  H    3.412351   8.117053   7.110812   4.875994   2.508600
                   26         27         28
    26  H    0.000000
    27  N    2.508600   0.000000
    28  H    1.788078   1.021834   0.000000
 Stoichiometry    C16H10N2
 Framework group  C1[X(C16H10N2)]
 Deg. of freedom    78
 Full point group                 C1      NOp   1
 Largest Abelian subgroup         C1      NOp   1
 Largest concise Abelian subgroup C1      NOp   1
                         Standard orientation:                         
 ---------------------------------------------------------------------
 Center     Atomic      Atomic             Coordinates (Angstroms)
 Number     Number       Type             X           Y           Z
 ---------------------------------------------------------------------
      1          6           0        3.535106   -0.473397    0.000000
      2          6           0        2.829733   -1.661718    0.000000
      3          6           0        1.420258   -1.663526    0.000000
      4          6           0        0.722050   -0.423711    0.000000
      5          6           0        1.460790    0.785588   -0.000001
      6          6           0        2.851531    0.746673   -0.000001
      7          6           0        0.678595   -2.891336    0.000001
      8          6           0       -0.722050   -0.423711    0.000000
      9          6           0       -1.420258   -1.663526    0.000000
     10          6           0       -0.678595   -2.891336    0.000001
     11          6           0       -2.829733   -1.661718    0.000000
     12          1           0       -3.354573   -2.611321    0.000000
     13          6           0       -3.535106   -0.473397   -0.000001
     14          6           0       -2.851531    0.746673   -0.000001
     15          6           0       -1.460790    0.785588   -0.000001
     16          6           0       -0.765048    2.095930   -0.000001
     17          6           0        0.765048    2.095930   -0.000001
     18          1           0        1.229174   -3.825962    0.000001
     19          1           0        4.619022   -0.482600    0.000000
     20          1           0        3.354573   -2.611321    0.000001
     21          1           0        3.392240    1.684018   -0.000001
     22          1           0       -1.229174   -3.825962    0.000001
     23          1           0       -4.619022   -0.482600   -0.000001
     24          1           0       -3.392240    1.684018   -0.000001
     25          7           0       -1.467758    3.162910    0.000003
     26          1           0       -0.894039    4.008482    0.000004
     27          7           0        1.467758    3.162910    0.000000
     28          1           0        0.894039    4.008482    0.000001
 ---------------------------------------------------------------------
 Rotational constants (GHZ):           0.6026444           0.5165558           0.2781446
 Standard basis: 6-311++G(d,p) (5D, 7F)
 There are   484 symmetry adapted cartesian basis functions of A   symmetry.
 There are   466 symmetry adapted basis functions of A   symmetry.
   466 basis functions,   738 primitive gaussians,   484 cartesian basis functions
    60 alpha electrons       60 beta electrons
       nuclear repulsion energy      1179.9622407274 Hartrees.
 NAtoms=   28 NActive=   28 NUniq=   28 SFac= 1.00D+00 NAtFMM=   60 NAOKFM=F Big=F
 Integral buffers will be    131072 words long.
 Raffenetti 2 integral format.
 Two-electron integral symmetry is turned on.
 One-electron integrals computed using PRISM.
 NBasis=   466 RedAO= T EigKep=  1.13D-06  NBF=   466
 NBsUse=   456 1.00D-06 EigRej=  7.25D-07 NBFU=   456
 ExpMin= 3.60D-02 ExpMax= 6.29D+03 ExpMxC= 9.49D+02 IAcc=3 IRadAn=         5 AccDes= 0.00D+00
 Harris functional with IExCor=  402 and IRadAn=       5 diagonalized for initial guess.
 HarFok:  IExCor=  402 AccDes= 0.00D+00 IRadAn=         5 IDoV= 1 UseB2=F ITyADJ=14
 ICtDFT=  3500011 ScaDFX=  1.000000  1.000000  1.000000  1.000000
 FoFCou: FMM=F IPFlag=           0 FMFlag=      100000 FMFlg1=           0
         NFxFlg=           0 DoJE=T BraDBF=F KetDBF=T FulRan=T
         wScrn=  0.000000 ICntrl=       500 IOpCl=  0 I1Cent=   200000004 NGrid=           0
         NMat0=    1 NMatS0=      1 NMatT0=    0 NMatD0=    1 NMtDS0=    0 NMtDT0=    0
 Petite list used in FoFCou.
 Requested convergence on RMS density matrix=1.00D-08 within 128 cycles.
 Requested convergence on MAX density matrix=1.00D-06.
 Requested convergence on             energy=1.00D-06.
 No special actions if energy rises.
 SCF Done:  E(RB3LYP) =  -725.416970729     A.U. after   15 cycles
            NFock= 15  Conv=0.18D-08     -V/T= 2.0043
 DoSCS=F DFT=T ScalE2(SS,OS)=  1.000000  1.000000
 Range of M.O.s used for correlation:     1   456
 NBasis=   466 NAE=    60 NBE=    60 NFC=     0 NFV=     0
 NROrb=    456 NOA=    60 NOB=    60 NVA=   396 NVB=   396

 **** Warning!!: The largest alpha MO coefficient is  0.10936949D+03

          Differentiating once with respect to electric field.
                with respect to dipole field.
          Electric field/nuclear overlap derivatives assumed to be zero.
          There are     3 degrees of freedom in the 1st order CPHF.  IDoFFX=0 NUNeed=     3.
      3 vectors produced by pass  0 Test12= 7.92D-13 3.33D-08 XBig12= 4.93D+02 1.40D+01.
 AX will form     3 AO Fock derivatives at one time.
      3 vectors produced by pass  1 Test12= 7.92D-13 3.33D-08 XBig12= 1.61D+02 2.70D+00.
      3 vectors produced by pass  2 Test12= 7.92D-13 3.33D-08 XBig12= 2.41D+01 1.37D+00.
      3 vectors produced by pass  3 Test12= 7.92D-13 3.33D-08 XBig12= 1.59D+01 1.09D+00.
      3 vectors produced by pass  4 Test12= 7.92D-13 3.33D-08 XBig12= 3.09D+00 6.68D-01.
      3 vectors produced by pass  5 Test12= 7.92D-13 3.33D-08 XBig12= 1.99D+00 3.79D-01.
      3 vectors produced by pass  6 Test12= 7.92D-13 3.33D-08 XBig12= 1.18D+00 4.49D-01.
      3 vectors produced by pass  7 Test12= 7.92D-13 3.33D-08 XBig12= 4.82D-01 1.52D-01.
      3 vectors produced by pass  8 Test12= 7.92D-13 3.33D-08 XBig12= 1.20D-01 1.11D-01.
      3 vectors produced by pass  9 Test12= 7.92D-13 3.33D-08 XBig12= 1.47D-02 2.65D-02.
      3 vectors produced by pass 10 Test12= 7.92D-13 3.33D-08 XBig12= 2.06D-03 1.22D-02.
      3 vectors produced by pass 11 Test12= 7.92D-13 3.33D-08 XBig12= 7.87D-04 7.01D-03.
      3 vectors produced by pass 12 Test12= 7.92D-13 3.33D-08 XBig12= 5.81D-05 2.13D-03.
      3 vectors produced by pass 13 Test12= 7.92D-13 3.33D-08 XBig12= 2.10D-05 7.95D-04.
      3 vectors produced by pass 14 Test12= 7.92D-13 3.33D-08 XBig12= 2.00D-06 3.63D-04.
      2 vectors produced by pass 15 Test12= 7.92D-13 3.33D-08 XBig12= 1.65D-07 8.54D-05.
      2 vectors produced by pass 16 Test12= 7.92D-13 3.33D-08 XBig12= 3.56D-08 4.29D-05.
      2 vectors produced by pass 17 Test12= 7.92D-13 3.33D-08 XBig12= 6.04D-09 1.50D-05.
      2 vectors produced by pass 18 Test12= 7.92D-13 3.33D-08 XBig12= 2.82D-10 2.57D-06.
      2 vectors produced by pass 19 Test12= 7.92D-13 3.33D-08 XBig12= 9.94D-12 4.51D-07.
      1 vectors produced by pass 20 Test12= 7.92D-13 3.33D-08 XBig12= 5.19D-13 1.18D-07.
 InvSVY:  IOpt=1 It=  1 EMax= 7.81D-15
 Solved reduced A of dimension    56 with     3 vectors.
 End of Minotr F.D. properties file   721 does not exist.
 End of Minotr F.D. properties file   722 does not exist.
 End of Minotr F.D. properties file   788 does not exist.
 Symmetrizing basis deriv contribution to polar:
 IMax=3 JMax=2 DiffMx= 0.00D+00
 G2DrvN: will do    29 centers at a time, making    1 passes.
 PxScal for G2LodP:  IOpCl= 0 ISclPx=1 IMOff=     1 NMtTot=     4 NTT=  108811 ScalPx= 3.40D+01
 Calling FoFCou, ICntrl=  3107 FMM=F I1Cent=   0 AccDes= 0.00D+00.
 End of G2Drv F.D. properties file   721 does not exist.
 End of G2Drv F.D. properties file   722 does not exist.
 End of G2Drv F.D. properties file   788 does not exist.
          IDoAtm=1111111111111111111111111111
          Differentiating once with respect to electric field.
                with respect to dipole field.
          Differentiating once with respect to nuclear coordinates.
 CalDSu exits because no D1Ps are significant.
          There are    87 degrees of freedom in the 1st order CPHF.  IDoFFX=5 NUNeed=    87.
 Will reuse    3 saved solutions.
     81 vectors produced by pass  0 Test12= 2.73D-14 1.15D-09 XBig12= 3.60D-01 1.85D-01.
 AX will form    81 AO Fock derivatives at one time.
     81 vectors produced by pass  1 Test12= 2.73D-14 1.15D-09 XBig12= 6.31D-02 5.46D-02.
     81 vectors produced by pass  2 Test12= 2.73D-14 1.15D-09 XBig12= 7.50D-04 4.40D-03.
     81 vectors produced by pass  3 Test12= 2.73D-14 1.15D-09 XBig12= 3.02D-06 1.99D-04.
     81 vectors produced by pass  4 Test12= 2.73D-14 1.15D-09 XBig12= 8.08D-09 1.14D-05.
     81 vectors produced by pass  5 Test12= 2.73D-14 1.15D-09 XBig12= 2.05D-11 4.34D-07.
     46 vectors produced by pass  6 Test12= 2.73D-14 1.15D-09 XBig12= 3.84D-14 1.95D-08.
 InvSVY:  IOpt=1 It=  1 EMax= 1.17D-15
 Solved reduced A of dimension   532 with    87 vectors.
 Isotropic polarizability for W=    0.000000      207.15 Bohr**3.
 End of Minotr F.D. properties file   721 does not exist.
 End of Minotr F.D. properties file   722 does not exist.
 End of Minotr F.D. properties file   788 does not exist.

 **********************************************************************

            Population analysis using the SCF Density.

 **********************************************************************

 Orbital symmetries:
       Occupied  (A) (A) (A) (A) (A) (A) (A) (A) (A) (A) (A) (A)
                 (A) (A) (A) (A) (A) (A) (A) (A) (A) (A) (A) (A)
                 (A) (A) (A) (A) (A) (A) (A) (A) (A) (A) (A) (A)
                 (A) (A) (A) (A) (A) (A) (A) (A) (A) (A) (A) (A)
                 (A) (A) (A) (A) (A) (A) (A) (A) (A) (A) (A) (A)
       Virtual   (A) (A) (A) (A) (A) (A) (A) (A) (A) (A) (A) (A)
                 (A) (A) (A) (A) (A) (A) (A) (A) (A) (A) (A) (A)
                 (A) (A) (A) (A) (A) (A) (A) (A) (A) (A) (A) (A)
                 (A) (A) (A) (A) (A) (A) (A) (A) (A) (A) (A) (A)
                 (A) (A) (A) (A) (A) (A) (A) (A) (A) (A) (A) (A)
                 (A) (A) (A) (A) (A) (A) (A) (A) (A) (A) (A) (A)
                 (A) (A) (A) (A) (A) (A) (A) (A) (A) (A) (A) (A)
                 (A) (A) (A) (A) (A) (A) (A) (A) (A) (A) (A) (A)
                 (A) (A) (A) (A) (A) (A) (A) (A) (A) (A) (A) (A)
                 (A) (A) (A) (A) (A) (A) (A) (A) (A) (A) (A) (A)
                 (A) (A) (A) (A) (A) (A) (A) (A) (A) (A) (A) (A)
                 (A) (A) (A) (A) (A) (A) (A) (A) (A) (A) (A) (A)
                 (A) (A) (A) (A) (A) (A) (A) (A) (A) (A) (A) (A)
                 (A) (A) (A) (A) (A) (A) (A) (A) (A) (A) (A) (A)
                 (A) (A) (A) (A) (A) (A) (A) (A) (A) (A) (A) (A)
                 (A) (A) (A) (A) (A) (A) (A) (A) (A) (A) (A) (A)
                 (A) (A) (A) (A) (A) (A) (A) (A) (A) (A) (A) (A)
                 (A) (A) (A) (A) (A) (A) (A) (A) (A) (A) (A) (A)
                 (A) (A) (A) (A) (A) (A) (A) (A) (A) (A) (A) (A)
                 (A) (A) (A) (A) (A) (A) (A) (A) (A) (A) (A) (A)
                 (A) (A) (A) (A) (A) (A) (A) (A) (A) (A) (A) (A)
                 (A) (A) (A) (A) (A) (A) (A) (A) (A) (A) (A) (A)
                 (A) (A) (A) (A) (A) (A) (A) (A) (A) (A) (A) (A)
                 (A) (A) (A) (A) (A) (A) (A) (A) (A) (A) (A) (A)
                 (A) (A) (A) (A) (A) (A) (A) (A) (A) (A) (A) (A)
                 (A) (A) (A) (A) (A) (A) (A) (A) (A) (A) (A) (A)
                 (A) (A) (A) (A) (A) (A) (A) (A) (A) (A) (A) (A)
                 (A) (A) (A) (A) (A) (A) (A) (A) (A) (A) (A) (A)
                 (A) (A) (A) (A) (A) (A) (A) (A) (A) (A) (A) (A)
                 (A) (A) (A) (A) (A) (A) (A) (A) (A) (A) (A) (A)
                 (A) (A) (A) (A) (A) (A) (A) (A) (A) (A) (A) (A)
                 (A) (A) (A) (A) (A) (A) (A) (A) (A) (A) (A) (A)
                 (A) (A) (A) (A) (A) (A) (A) (A) (A) (A) (A) (A)
 The electronic state is 1-A.
 Alpha  occ. eigenvalues --  -14.31701 -14.31699 -10.24511 -10.24490 -10.20472
 Alpha  occ. eigenvalues --  -10.20434 -10.20089 -10.20088 -10.19925 -10.19924
 Alpha  occ. eigenvalues --  -10.19314 -10.19314 -10.19085 -10.19013 -10.18896
 Alpha  occ. eigenvalues --  -10.18896 -10.18757 -10.18757  -0.95597  -0.90707
 Alpha  occ. eigenvalues --   -0.90257  -0.86509  -0.82891  -0.80518  -0.77593
 Alpha  occ. eigenvalues --   -0.74584  -0.74110  -0.69764  -0.64541  -0.64259
 Alpha  occ. eigenvalues --   -0.62959  -0.60428  -0.56075  -0.55486  -0.53646
 Alpha  occ. eigenvalues --   -0.53309  -0.50460  -0.48875  -0.48290  -0.45296
 Alpha  occ. eigenvalues --   -0.45238  -0.44259  -0.44075  -0.43719  -0.42574
 Alpha  occ. eigenvalues --   -0.40767  -0.39368  -0.38604  -0.38546  -0.38122
 Alpha  occ. eigenvalues --   -0.35445  -0.34640  -0.33124  -0.32583  -0.30417
 Alpha  occ. eigenvalues --   -0.30321  -0.27847  -0.27216  -0.24192  -0.23131
 Alpha virt. eigenvalues --   -0.10514  -0.06706  -0.04349  -0.01052  -0.00930
 Alpha virt. eigenvalues --   -0.00486  -0.00170   0.00421   0.01022   0.01933
 Alpha virt. eigenvalues --    0.02711   0.03490   0.03552   0.03863   0.04513
 Alpha virt. eigenvalues --    0.05656   0.06023   0.06355   0.06762   0.06813
 Alpha virt. eigenvalues --    0.06919   0.08035   0.08685   0.09116   0.09400
 Alpha virt. eigenvalues --    0.10032   0.10499   0.10786   0.10964   0.11119
 Alpha virt. eigenvalues --    0.11448   0.11846   0.11917   0.12191   0.12798
 Alpha virt. eigenvalues --    0.12968   0.13362   0.13537   0.13580   0.13760
 Alpha virt. eigenvalues --    0.14701   0.14828   0.15267   0.16155   0.16933
 Alpha virt. eigenvalues --    0.17169   0.17328   0.17356   0.17593   0.17941
 Alpha virt. eigenvalues --    0.18355   0.18880   0.19475   0.19754   0.20577
 Alpha virt. eigenvalues --    0.21181   0.21193   0.21766   0.22261   0.22448
 Alpha virt. eigenvalues --    0.22743   0.22853   0.23247   0.23567   0.23724
 Alpha virt. eigenvalues --    0.23941   0.24280   0.24813   0.25254   0.25739
 Alpha virt. eigenvalues --    0.25894   0.26582   0.26649   0.27203   0.27621
 Alpha virt. eigenvalues --    0.28387   0.28581   0.28751   0.28947   0.29005
 Alpha virt. eigenvalues --    0.29430   0.29815   0.30108   0.30800   0.30865
 Alpha virt. eigenvalues --    0.31577   0.32112   0.32238   0.32374   0.33310
 Alpha virt. eigenvalues --    0.33958   0.34430   0.34863   0.35367   0.36356
 Alpha virt. eigenvalues --    0.36618   0.37130   0.38733   0.39443   0.40700
 Alpha virt. eigenvalues --    0.41867   0.42074   0.43607   0.44322   0.45693
 Alpha virt. eigenvalues --    0.47118   0.50102   0.50687   0.51797   0.52086
 Alpha virt. eigenvalues --    0.52919   0.54305   0.54421   0.55293   0.55461
 Alpha virt. eigenvalues --    0.56586   0.56985   0.57663   0.58422   0.58851
 Alpha virt. eigenvalues --    0.59099   0.59374   0.59797   0.60011   0.60577
 Alpha virt. eigenvalues --    0.61390   0.62253   0.63442   0.63573   0.63648
 Alpha virt. eigenvalues --    0.64836   0.65021   0.65310   0.65445   0.65986
 Alpha virt. eigenvalues --    0.67153   0.68413   0.68713   0.70336   0.72711
 Alpha virt. eigenvalues --    0.72784   0.72906   0.73709   0.74116   0.75086
 Alpha virt. eigenvalues --    0.75569   0.75812   0.76706   0.77819   0.78600
 Alpha virt. eigenvalues --    0.79804   0.81157   0.82956   0.82971   0.83996
 Alpha virt. eigenvalues --    0.85190   0.85911   0.86812   0.87650   0.88617
 Alpha virt. eigenvalues --    0.89311   0.89322   0.89904   0.90066   0.90589
 Alpha virt. eigenvalues --    0.90724   0.92474   0.92606   0.93434   0.94253
 Alpha virt. eigenvalues --    0.94434   0.95364   0.95627   0.96455   0.97184
 Alpha virt. eigenvalues --    0.97339   1.00673   1.00701   1.00763   1.00916
 Alpha virt. eigenvalues --    1.01071   1.03065   1.04214   1.04604   1.05021
 Alpha virt. eigenvalues --    1.05707   1.07775   1.08794   1.09715   1.10895
 Alpha virt. eigenvalues --    1.11311   1.11650   1.12112   1.12816   1.14549
 Alpha virt. eigenvalues --    1.15254   1.16488   1.16975   1.23315   1.25752
 Alpha virt. eigenvalues --    1.29696   1.33255   1.33748   1.34784   1.36119
 Alpha virt. eigenvalues --    1.38673   1.40501   1.43103   1.45242   1.45431
 Alpha virt. eigenvalues --    1.45613   1.46961   1.47342   1.49146   1.49180
 Alpha virt. eigenvalues --    1.49379   1.50554   1.50642   1.52286   1.54798
 Alpha virt. eigenvalues --    1.55304   1.56324   1.57418   1.58296   1.58711
 Alpha virt. eigenvalues --    1.61281   1.61366   1.64167   1.64759   1.66328
 Alpha virt. eigenvalues --    1.67209   1.67667   1.70324   1.70356   1.70809
 Alpha virt. eigenvalues --    1.72289   1.73674   1.73740   1.74671   1.75121
 Alpha virt. eigenvalues --    1.79071   1.79170   1.80083   1.85277   1.85848
 Alpha virt. eigenvalues --    1.86087   1.87613   1.88899   1.88908   1.89528
 Alpha virt. eigenvalues --    1.90101   1.90171   1.91445   1.93416   1.94176
 Alpha virt. eigenvalues --    1.94576   1.94924   1.95866   1.96300   1.98056
 Alpha virt. eigenvalues --    2.00057   2.02209   2.02479   2.04644   2.05648
 Alpha virt. eigenvalues --    2.06187   2.06245   2.07182   2.13271   2.14225
 Alpha virt. eigenvalues --    2.14445   2.16328   2.18130   2.19141   2.22432
 Alpha virt. eigenvalues --    2.23980   2.25924   2.28260   2.29600   2.30741
 Alpha virt. eigenvalues --    2.31855   2.34174   2.34900   2.38859   2.41110
 Alpha virt. eigenvalues --    2.42017   2.44886   2.47119   2.47931   2.48887
 Alpha virt. eigenvalues --    2.50574   2.51143   2.55894   2.55977   2.58475
 Alpha virt. eigenvalues --    2.61443   2.62132   2.64005   2.64827   2.66832
 Alpha virt. eigenvalues --    2.70197   2.70999   2.71143   2.71654   2.71811
 Alpha virt. eigenvalues --    2.72159   2.73412   2.74291   2.75125   2.75689
 Alpha virt. eigenvalues --    2.76661   2.76789   2.77516   2.80053   2.80718
 Alpha virt. eigenvalues --    2.81215   2.81556   2.82764   2.83146   2.85395
 Alpha virt. eigenvalues --    2.86217   2.87761   2.88990   2.90453   2.90482
 Alpha virt. eigenvalues --    2.91412   2.91998   2.93302   2.93856   3.01823
 Alpha virt. eigenvalues --    3.04398   3.04738   3.06001   3.08038   3.12764
 Alpha virt. eigenvalues --    3.15108   3.17975   3.19967   3.24812   3.25358
 Alpha virt. eigenvalues --    3.27834   3.30049   3.31127   3.37611   3.38194
 Alpha virt. eigenvalues --    3.39285   3.41218   3.42114   3.43485   3.46417
 Alpha virt. eigenvalues --    3.49858   3.55821   3.56971   3.62230   3.62536
 Alpha virt. eigenvalues --    3.64286   3.71061   3.76819   3.87712   3.90206
 Alpha virt. eigenvalues --    3.91967   3.95395   4.05114   4.05313   4.06891
 Alpha virt. eigenvalues --    4.09545   4.13614   4.17104   4.31000   4.40181
 Alpha virt. eigenvalues --    4.44023   4.49324   4.78169   4.82356   4.82540
 Alpha virt. eigenvalues --    4.85339   4.86586   5.05433  23.46588  23.71647
 Alpha virt. eigenvalues --   23.82812  23.89709  23.91812  23.92636  23.95165
 Alpha virt. eigenvalues --   23.95489  23.97695  24.00976  24.03391  24.07304
 Alpha virt. eigenvalues --   24.08409  24.17366  24.17751  24.20560  35.64740
 Alpha virt. eigenvalues --   35.77099
          Condensed to atoms (all electrons):
               1          2          3          4          5          6
     1  C    7.883074   0.644392  -0.459195  -0.593220  -2.093663   0.398049
     2  C    0.644392   8.738699  -1.270653   0.367295   0.746998  -2.157702
     3  C   -0.459195  -1.270653  10.890587   0.604556  -0.002141   1.212566
     4  C   -0.593220   0.367295   0.604556   7.765320   3.734105  -0.599604
     5  C   -2.093663   0.746998  -0.002141   3.734105  18.318910  -2.509934
     6  C    0.398049  -2.157702   1.212566  -0.599604  -2.509934   9.493773
     7  C   -0.262914  -0.265421  -0.411059  -0.093891  -0.455099  -0.256479
     8  C   -0.557855   0.267148  -0.363837   0.904252   0.323858  -0.409918
     9  C   -0.085867  -0.574675   1.651060  -0.363837  -0.098834   0.235805
    10  C   -0.202679   0.076989  -1.460800  -0.244012  -0.723470  -0.134744
    11  C   -0.013719   0.038110  -0.574675   0.267148   0.107531  -0.135158
    12  H   -0.001049  -0.002534   0.005574   0.022750   0.009455  -0.000212
    13  C    0.021115  -0.013719  -0.085867  -0.557855  -0.018210   0.056928
    14  C    0.056928  -0.135158   0.235805  -0.409918  -0.069776   0.336646
    15  C   -0.018210   0.107531  -0.098834   0.323858  -0.859527  -0.069776
    16  C    0.340652  -0.227853  -1.890614  -2.802755  -7.646453   0.509910
    17  C    0.876343  -0.466211  -2.301435  -1.926893  -2.867514  -0.393036
    18  H    0.043000   0.001469  -0.028080   0.012316  -0.009312   0.019001
    19  H    0.478504  -0.068961   0.018701  -0.021913  -0.066424  -0.084058
    20  H   -0.092740   0.477304  -0.122026   0.014646  -0.005880  -0.024227
    21  H   -0.223352  -0.009251   0.028188   0.059577   0.188723   0.432068
    22  H   -0.000326   0.001294  -0.010609  -0.036611  -0.018089   0.001443
    23  H    0.000297   0.000706   0.005801  -0.014966   0.002583   0.000292
    24  H   -0.002806  -0.001983   0.010269   0.026613   0.002141  -0.004968
    25  N    0.008373   0.003243   0.002390  -0.045160   0.068190   0.024702
    26  H    0.002036   0.000797  -0.003814  -0.004642  -0.017273   0.003861
    27  N    0.100285  -0.002956  -0.028517  -0.215597  -1.297413   0.250418
    28  H   -0.000334   0.002618  -0.000408   0.028936   0.194056  -0.012250
               7          8          9         10         11         12
     1  C   -0.262914  -0.557855  -0.085867  -0.202679  -0.013719  -0.001049
     2  C   -0.265421   0.267148  -0.574675   0.076989   0.038110  -0.002534
     3  C   -0.411059  -0.363837   1.651060  -1.460800  -0.574675   0.005574
     4  C   -0.093891   0.904252  -0.363837  -0.244012   0.267148   0.022750
     5  C   -0.455099   0.323858  -0.098834  -0.723470   0.107531   0.009455
     6  C   -0.256479  -0.409918   0.235805  -0.134744  -0.135158  -0.000212
     7  C    8.534700  -0.244012  -1.460800   2.074434   0.076989   0.045701
     8  C   -0.244012   7.765320   0.604556  -0.093891   0.367295   0.014646
     9  C   -1.460800   0.604556  10.890587  -0.411059  -1.270653  -0.122026
    10  C    2.074434  -0.093891  -0.411059   8.534700  -0.265421   0.064862
    11  C    0.076989   0.367295  -1.270653  -0.265421   8.738699   0.477304
    12  H    0.045701   0.014646  -0.122026   0.064862   0.477304   0.548660
    13  C   -0.202679  -0.593220  -0.459195  -0.262914   0.644392  -0.092740
    14  C   -0.134744  -0.599604   1.212566  -0.256479  -2.157702  -0.024227
    15  C   -0.723470   3.734105  -0.002141  -0.455099   0.746998  -0.005880
    16  C   -0.139404  -1.926893  -2.301435  -0.092257  -0.466211  -0.037403
    17  C   -0.092257  -2.802755  -1.890614  -0.139404  -0.227853  -0.009738
    18  H    0.399401  -0.036611  -0.010609  -0.057327   0.001294   0.000516
    19  H    0.001538  -0.014966   0.005801  -0.004186   0.000706  -0.000005
    20  H    0.064862   0.022750   0.005574   0.045701  -0.002534   0.000076
    21  H   -0.011479   0.026613   0.010269   0.000627  -0.001983   0.000032
    22  H   -0.057327   0.012316  -0.028080   0.399401   0.001469   0.001815
    23  H   -0.004186  -0.021913   0.018701   0.001538  -0.068961  -0.020842
    24  H    0.000627   0.059577   0.028188  -0.011479  -0.009251   0.003359
    25  N   -0.005166  -0.215597  -0.028517  -0.001513  -0.002956   0.000108
    26  H   -0.000301   0.028936  -0.000408   0.000135   0.002618   0.000047
    27  N   -0.001513  -0.045160   0.002390  -0.005166   0.003243   0.000016
    28  H    0.000135  -0.004642  -0.003814  -0.000301   0.000797  -0.000010
              13         14         15         16         17         18
     1  C    0.021115   0.056928  -0.018210   0.340652   0.876343   0.043000
     2  C   -0.013719  -0.135158   0.107531  -0.227853  -0.466211   0.001469
     3  C   -0.085867   0.235805  -0.098834  -1.890614  -2.301435  -0.028080
     4  C   -0.557855  -0.409918   0.323858  -2.802755  -1.926893   0.012316
     5  C   -0.018210  -0.069776  -0.859527  -7.646453  -2.867514  -0.009312
     6  C    0.056928   0.336646  -0.069776   0.509910  -0.393036   0.019001
     7  C   -0.202679  -0.134744  -0.723470  -0.139404  -0.092257   0.399401
     8  C   -0.593220  -0.599604   3.734105  -1.926893  -2.802755  -0.036611
     9  C   -0.459195   1.212566  -0.002141  -2.301435  -1.890614  -0.010609
    10  C   -0.262914  -0.256479  -0.455099  -0.092257  -0.139404  -0.057327
    11  C    0.644392  -2.157702   0.746998  -0.466211  -0.227853   0.001294
    12  H   -0.092740  -0.024227  -0.005880  -0.037403  -0.009738   0.000516
    13  C    7.883074   0.398049  -2.093663   0.876343   0.340652  -0.000326
    14  C    0.398049   9.493773  -2.509934  -0.393036   0.509910   0.001443
    15  C   -2.093663  -2.509934  18.318909  -2.867514  -7.646453  -0.018089
    16  C    0.876343  -0.393036  -2.867514  22.445473   2.539123  -0.002418
    17  C    0.340652   0.509910  -7.646453   2.539123  22.445473   0.006402
    18  H   -0.000326   0.001443  -0.018089  -0.002418   0.006402   0.549146
    19  H    0.000297   0.000292   0.002583   0.015585   0.043295   0.001454
    20  H   -0.001049  -0.000212   0.009455  -0.009738  -0.037403   0.001815
    21  H   -0.002806  -0.004968   0.002141  -0.069461  -0.082223  -0.000284
    22  H    0.043000   0.019001  -0.009312   0.006402  -0.002418  -0.013857
    23  H    0.478504  -0.084058  -0.066424   0.043295   0.015585  -0.000191
    24  H   -0.223352   0.432068   0.188723  -0.082223  -0.069461   0.000008
    25  N    0.100285   0.250418  -1.297413   0.619793   0.707827  -0.000054
    26  H   -0.000334  -0.012250   0.194056   0.025487  -0.250347  -0.000009
    27  N    0.008373   0.024702   0.068190   0.707827   0.619793   0.000016
    28  H    0.002036   0.003861  -0.017273  -0.250347   0.025487  -0.000002
              19         20         21         22         23         24
     1  C    0.478504  -0.092740  -0.223352  -0.000326   0.000297  -0.002806
     2  C   -0.068961   0.477304  -0.009251   0.001294   0.000706  -0.001983
     3  C    0.018701  -0.122026   0.028188  -0.010609   0.005801   0.010269
     4  C   -0.021913   0.014646   0.059577  -0.036611  -0.014966   0.026613
     5  C   -0.066424  -0.005880   0.188723  -0.018089   0.002583   0.002141
     6  C   -0.084058  -0.024227   0.432068   0.001443   0.000292  -0.004968
     7  C    0.001538   0.064862  -0.011479  -0.057327  -0.004186   0.000627
     8  C   -0.014966   0.022750   0.026613   0.012316  -0.021913   0.059577
     9  C    0.005801   0.005574   0.010269  -0.028080   0.018701   0.028188
    10  C   -0.004186   0.045701   0.000627   0.399401   0.001538  -0.011479
    11  C    0.000706  -0.002534  -0.001983   0.001469  -0.068961  -0.009251
    12  H   -0.000005   0.000076   0.000032   0.001815  -0.020842   0.003359
    13  C    0.000297  -0.001049  -0.002806   0.043000   0.478504  -0.223352
    14  C    0.000292  -0.000212  -0.004968   0.019001  -0.084058   0.432068
    15  C    0.002583   0.009455   0.002141  -0.009312  -0.066424   0.188723
    16  C    0.015585  -0.009738  -0.069461   0.006402   0.043295  -0.082223
    17  C    0.043295  -0.037403  -0.082223  -0.002418   0.015585  -0.069461
    18  H    0.001454   0.001815  -0.000284  -0.013857  -0.000191   0.000008
    19  H    0.546270  -0.020842  -0.018325  -0.000191   0.000008  -0.000021
    20  H   -0.020842   0.548660   0.003359   0.000516  -0.000005   0.000032
    21  H   -0.018325   0.003359   0.489102   0.000008  -0.000021   0.000450
    22  H   -0.000191   0.000516   0.000008   0.549146   0.001454  -0.000284
    23  H    0.000008  -0.000005  -0.000021   0.001454   0.546270  -0.018325
    24  H   -0.000021   0.000032   0.000450  -0.000284  -0.018325   0.489102
    25  N    0.000061   0.000016  -0.001419   0.000016   0.001363  -0.022536
    26  H    0.000000  -0.000010  -0.000308  -0.000002  -0.000505   0.004903
    27  N    0.001363   0.000108  -0.022536  -0.000054   0.000061  -0.001419
    28  H   -0.000505   0.000047   0.004903  -0.000009   0.000000  -0.000308
              25         26         27         28
     1  C    0.008373   0.002036   0.100285  -0.000334
     2  C    0.003243   0.000797  -0.002956   0.002618
     3  C    0.002390  -0.003814  -0.028517  -0.000408
     4  C   -0.045160  -0.004642  -0.215597   0.028936
     5  C    0.068190  -0.017273  -1.297413   0.194056
     6  C    0.024702   0.003861   0.250418  -0.012250
     7  C   -0.005166  -0.000301  -0.001513   0.000135
     8  C   -0.215597   0.028936  -0.045160  -0.004642
     9  C   -0.028517  -0.000408   0.002390  -0.003814
    10  C   -0.001513   0.000135  -0.005166  -0.000301
    11  C   -0.002956   0.002618   0.003243   0.000797
    12  H    0.000108   0.000047   0.000016  -0.000010
    13  C    0.100285  -0.000334   0.008373   0.002036
    14  C    0.250418  -0.012250   0.024702   0.003861
    15  C   -1.297413   0.194056   0.068190  -0.017273
    16  C    0.619793   0.025487   0.707827  -0.250347
    17  C    0.707827  -0.250347   0.619793   0.025487
    18  H   -0.000054  -0.000009   0.000016  -0.000002
    19  H    0.000061   0.000000   0.001363  -0.000505
    20  H    0.000016  -0.000010   0.000108   0.000047
    21  H   -0.001419  -0.000308  -0.022536   0.004903
    22  H    0.000016  -0.000002  -0.000054  -0.000009
    23  H    0.001363  -0.000505   0.000061   0.000000
    24  H   -0.022536   0.004903  -0.001419  -0.000308
    25  N    6.847877   0.204697  -0.028250  -0.031954
    26  H    0.204697   0.592538  -0.031954   0.054079
    27  N   -0.028250  -0.031954   6.847877   0.204697
    28  H   -0.031954   0.054079   0.204697   0.592538
 Mulliken charges:
               1
     1  C   -0.245118
     2  C   -0.277516
     3  C    0.447066
     4  C   -0.200498
     5  C    1.062459
     6  C   -0.183396
     7  C   -0.376187
     8  C   -0.200498
     9  C    0.447066
    10  C   -0.376187
    11  C   -0.277516
    12  H    0.121745
    13  C   -0.245118
    14  C   -0.183396
    15  C    1.062459
    16  C   -0.923878
    17  C   -0.923878
    18  H    0.139888
    19  H    0.183938
    20  H    0.121745
    21  H    0.202356
    22  H    0.139888
    23  H    0.183938
    24  H    0.202356
    25  N   -0.158826
    26  H    0.207965
    27  N   -0.158826
    28  H    0.207965
 Sum of Mulliken charges =   0.00000
 Mulliken charges with hydrogens summed into heavy atoms:
               1
     1  C   -0.061180
     2  C   -0.155771
     3  C    0.447066
     4  C   -0.200498
     5  C    1.062459
     6  C    0.018960
     7  C   -0.236299
     8  C   -0.200498
     9  C    0.447066
    10  C   -0.236299
    11  C   -0.155771
    13  C   -0.061180
    14  C    0.018960
    15  C    1.062459
    16  C   -0.923878
    17  C   -0.923878
    25  N    0.049140
    27  N    0.049140
 APT charges:
               1
     1  C   -0.055332
     2  C    0.023363
     3  C   -0.038761
     4  C    0.064333
     5  C   -0.167048
     6  C   -0.047574
     7  C   -0.014476
     8  C    0.064333
     9  C   -0.038761
    10  C   -0.014476
    11  C    0.023363
    12  H    0.032816
    13  C   -0.055332
    14  C   -0.047574
    15  C   -0.167048
    16  C    0.465958
    17  C    0.465958
    18  H    0.028241
    19  H    0.031249
    20  H    0.032816
    21  H    0.081716
    22  H    0.028241
    23  H    0.031249
    24  H    0.081716
    25  N   -0.569045
    26  H    0.164559
    27  N   -0.569045
    28  H    0.164559
 Sum of APT charges =   0.00000
 APT charges with hydrogens summed into heavy atoms:
               1
     1  C   -0.024083
     2  C    0.056179
     3  C   -0.038761
     4  C    0.064333
     5  C   -0.167048
     6  C    0.034142
     7  C    0.013765
     8  C    0.064333
     9  C   -0.038761
    10  C    0.013765
    11  C    0.056179
    13  C   -0.024083
    14  C    0.034142
    15  C   -0.167048
    16  C    0.465958
    17  C    0.465958
    25  N   -0.404486
    27  N   -0.404486
 Electronic spatial extent (au):  <R**2>=           3775.9817
 Charge=              0.0000 electrons
 Dipole moment (field-independent basis, Debye):
    X=              0.0000    Y=             -2.2640    Z=              0.0000  Tot=              2.2640
 Quadrupole moment (field-independent basis, Debye-Ang):
   XX=            -96.3270   YY=            -94.9268   ZZ=           -109.4527
   XY=              0.0000   XZ=              0.0000   YZ=              0.0000
 Traceless Quadrupole moment (field-independent basis, Debye-Ang):
   XX=              3.9085   YY=              5.3087   ZZ=             -9.2172
   XY=              0.0000   XZ=              0.0000   YZ=              0.0000
 Octapole moment (field-independent basis, Debye-Ang**2):
  XXX=              0.0000  YYY=             -3.7497  ZZZ=              0.0000  XYY=              0.0000
  XXY=            -37.5206  XXZ=              0.0000  XZZ=              0.0000  YZZ=              8.1991
  YYZ=              0.0000  XYZ=              0.0000
 Hexadecapole moment (field-independent basis, Debye-Ang**3):
 XXXX=          -2515.7675 YYYY=          -2102.9111 ZZZZ=           -126.2705 XXXY=              0.0000
 XXXZ=              0.0001 YYYX=              0.0000 YYYZ=              0.0001 ZZZX=              0.0000
 ZZZY=              0.0000 XXYY=           -897.5797 XXZZ=           -540.1189 YYZZ=           -447.9105
 XXYZ=             -0.0001 YYXZ=              0.0001 ZZXY=              0.0000
 N-N= 1.179962240727D+03 E-N=-4.044495712940D+03  KE= 7.222770743301D+02
  Exact polarizability:     275.551       0.000     253.256       0.000       0.000      92.640
 Approx polarizability:     472.486       0.000     446.429       0.000       0.000     153.206
 Calling FoFJK, ICntrl=    100127 FMM=F ISym2X=0 I1Cent= 0 IOpClX= 0 NMat=1 NMatS=1 NMatT=0.
 Full mass-weighted force constant matrix:
 Low frequencies ---  -57.8535   -4.7845   -3.9989   -3.2220   -0.0011   -0.0007
 Low frequencies ---    0.0006   68.0588  155.0240
 ******    1 imaginary frequencies (negative Signs) ****** 
 Diagonal vibrational polarizability:
        3.2475935      13.9139477      20.6385572
 Diagonal vibrational hyperpolarizability:
        0.0000000     -87.2030591      -0.0007285
 Harmonic frequencies (cm**-1), IR intensities (KM/Mole), Raman scattering
 activities (A**4/AMU), depolarization ratios for plane and unpolarized
 incident light, reduced masses (AMU), force constants (mDyne/A),
 and normal coordinates:
                      1                      2                      3
                      A                      A                      A
 Frequencies --    -57.8527                68.0580               155.0240
 Red. masses --      6.1442                 4.8289                 4.2234
 Frc consts  --      0.0121                 0.0132                 0.0598
 IR Inten    --      0.0000                 0.7702                 0.0000
 Raman Activ --      0.0002                 0.1252                 0.0793
 Depolar (P) --      0.7500                 0.7500                 0.7500
 Depolar (U) --      0.8571                 0.8571                 0.8571
  Atom  AN      X      Y      Z        X      Y      Z        X      Y      Z
     1   6     0.00   0.00   0.09     0.00   0.00   0.22     0.00   0.00   0.03
     2   6     0.00   0.00   0.08     0.00   0.00   0.06     0.00   0.00  -0.21
     3   6     0.00   0.00   0.04     0.00   0.00  -0.07     0.00   0.00  -0.15
     4   6     0.00   0.00   0.02     0.00   0.00  -0.04     0.00   0.00  -0.01
     5   6     0.00   0.00   0.00     0.00   0.00   0.05     0.00   0.00   0.12
     6   6     0.00   0.00   0.04     0.00   0.00   0.20     0.00   0.00   0.22
     7   6     0.00   0.00   0.02     0.00   0.00  -0.20     0.00   0.00  -0.12
     8   6     0.00   0.00  -0.02     0.00   0.00  -0.04     0.00   0.00   0.01
     9   6     0.00   0.00  -0.04     0.00   0.00  -0.07     0.00   0.00   0.15
    10   6     0.00   0.00  -0.02     0.00   0.00  -0.20     0.00   0.00   0.12
    11   6     0.00   0.00  -0.08     0.00   0.00   0.06     0.00   0.00   0.21
    12   1     0.00   0.00  -0.10     0.00   0.00   0.06     0.00   0.00   0.37
    13   6     0.00   0.00  -0.09     0.00   0.00   0.22     0.00   0.00  -0.03
    14   6     0.00   0.00  -0.04     0.00   0.00   0.20     0.00   0.00  -0.22
    15   6     0.00   0.00   0.00     0.00   0.00   0.05     0.00   0.00  -0.12
    16   6     0.00   0.00   0.12     0.00   0.00  -0.05     0.00   0.00  -0.04
    17   6     0.00   0.00  -0.12     0.00   0.00  -0.05     0.00   0.00   0.04
    18   1     0.00   0.00   0.04     0.00   0.00  -0.27     0.00   0.00  -0.22
    19   1     0.00   0.00   0.12     0.00   0.00   0.35     0.00   0.00   0.07
    20   1     0.00   0.00   0.10     0.00   0.00   0.06     0.00   0.00  -0.37
    21   1     0.00   0.00   0.03     0.00   0.00   0.29     0.00   0.00   0.38
    22   1     0.00   0.00  -0.04     0.00   0.00  -0.27     0.00   0.00   0.22
    23   1     0.00   0.00  -0.12     0.00   0.00   0.35     0.00   0.00  -0.07
    24   1     0.00   0.00  -0.03     0.00   0.00   0.29     0.00   0.00  -0.38
    25   7     0.00   0.00   0.41     0.00   0.00  -0.16     0.00   0.00   0.03
    26   1     0.00   0.00   0.52     0.00   0.00  -0.23     0.00   0.00   0.13
    27   7     0.00   0.00  -0.41     0.00   0.00  -0.16     0.00   0.00  -0.03
    28   1     0.00   0.00  -0.52     0.00   0.00  -0.23     0.00   0.00  -0.13
                      4                      5                      6
                      A                      A                      A
 Frequencies --    155.3650               227.5354               267.8837
 Red. masses --      5.0408                 3.6438                 4.5215
 Frc consts  --      0.0717                 0.1111                 0.1912
 IR Inten    --      2.0567                 3.3678                 0.0000
 Raman Activ --      0.0433                 0.2852                 1.0766
 Depolar (P) --      0.7500                 0.7500                 0.7500
 Depolar (U) --      0.8571                 0.8571                 0.8571
  Atom  AN      X      Y      Z        X      Y      Z        X      Y      Z
     1   6     0.00   0.00  -0.14     0.00   0.00   0.00     0.00   0.00  -0.19
     2   6     0.00   0.00  -0.15     0.00   0.00  -0.17     0.00   0.00  -0.03
     3   6     0.00   0.00   0.05     0.00   0.00  -0.10     0.00   0.00   0.18
     4   6     0.00   0.00   0.23     0.00   0.00  -0.14     0.00   0.00   0.14
     5   6     0.00   0.00   0.21     0.00   0.00   0.01     0.00   0.00   0.21
     6   6     0.00   0.00   0.06     0.00   0.00   0.17     0.00   0.00   0.06
     7   6     0.00   0.00  -0.03     0.00   0.00   0.19     0.00   0.00   0.13
     8   6     0.00   0.00   0.23     0.00   0.00  -0.14     0.00   0.00  -0.14
     9   6     0.00   0.00   0.05     0.00   0.00  -0.10     0.00   0.00  -0.18
    10   6     0.00   0.00  -0.03     0.00   0.00   0.19     0.00   0.00  -0.13
    11   6     0.00   0.00  -0.15     0.00   0.00  -0.17     0.00   0.00   0.03
    12   1     0.00   0.00  -0.34     0.00   0.00  -0.24     0.00   0.00   0.16
    13   6     0.00   0.00  -0.14     0.00   0.00   0.00     0.00   0.00   0.19
    14   6     0.00   0.00   0.06     0.00   0.00   0.17     0.00   0.00  -0.06
    15   6     0.00   0.00   0.21     0.00   0.00   0.01     0.00   0.00  -0.21
    16   6     0.00   0.00   0.08     0.00   0.00   0.01     0.00   0.00  -0.08
    17   6     0.00   0.00   0.08     0.00   0.00   0.01     0.00   0.00   0.08
    18   1     0.00   0.00  -0.14     0.00   0.00   0.43     0.00   0.00   0.21
    19   1     0.00   0.00  -0.31     0.00   0.00   0.04     0.00   0.00  -0.46
    20   1     0.00   0.00  -0.34     0.00   0.00  -0.24     0.00   0.00  -0.16
    21   1     0.00   0.00   0.02     0.00   0.00   0.36     0.00   0.00   0.02
    22   1     0.00   0.00  -0.14     0.00   0.00   0.43     0.00   0.00  -0.21
    23   1     0.00   0.00  -0.31     0.00   0.00   0.04     0.00   0.00   0.46
    24   1     0.00   0.00   0.02     0.00   0.00   0.36     0.00   0.00  -0.02
    25   7     0.00   0.00  -0.17     0.00   0.00  -0.02     0.00   0.00   0.02
    26   1     0.00   0.00  -0.30     0.00   0.00  -0.01     0.00   0.00   0.23
    27   7     0.00   0.00  -0.17     0.00   0.00  -0.02     0.00   0.00  -0.02
    28   1     0.00   0.00  -0.30     0.00   0.00  -0.01     0.00   0.00  -0.23
                      7                      8                      9
                      A                      A                      A
 Frequencies --    331.9161               349.0422               389.2338
 Red. masses --      5.2745                 4.8405                 8.0407
 Frc consts  --      0.3424                 0.3475                 0.7177
 IR Inten    --      0.0013                 2.5942                 0.1691
 Raman Activ --      1.9337                 0.7722                16.4579
 Depolar (P) --      0.7500                 0.0869                 0.7177
 Depolar (U) --      0.8571                 0.1599                 0.8356
  Atom  AN      X      Y      Z        X      Y      Z        X      Y      Z
     1   6    -0.04   0.14   0.00     0.01   0.22   0.00     0.26  -0.01   0.00
     2   6    -0.02   0.13   0.00     0.11   0.13   0.00     0.15   0.04   0.00
     3   6    -0.02   0.05   0.00     0.08  -0.06   0.00     0.11   0.12   0.00
     4   6    -0.10  -0.01   0.00     0.00  -0.11   0.00     0.05   0.06   0.00
     5   6    -0.10  -0.04   0.00    -0.09  -0.07   0.00     0.19  -0.05   0.00
     6   6    -0.11   0.07   0.00    -0.11   0.13   0.00     0.24  -0.02   0.00
     7   6     0.05   0.02   0.00     0.02  -0.04   0.00     0.01   0.20   0.00
     8   6    -0.10   0.01   0.00     0.00  -0.11   0.00    -0.05   0.06   0.00
     9   6    -0.02  -0.05   0.00    -0.08  -0.06   0.00    -0.11   0.12   0.00
    10   6     0.05  -0.02   0.00    -0.02  -0.04   0.00    -0.01   0.20   0.00
    11   6    -0.02  -0.13   0.00    -0.11   0.13   0.00    -0.15   0.04   0.00
    12   1     0.01  -0.15   0.00    -0.25   0.21   0.00    -0.06  -0.01   0.00
    13   6    -0.04  -0.14   0.00    -0.01   0.22   0.00    -0.26  -0.01   0.00
    14   6    -0.11  -0.07   0.00     0.11   0.13   0.00    -0.24  -0.02   0.00
    15   6    -0.10   0.04   0.00     0.09  -0.07   0.00    -0.19  -0.05   0.00
    16   6     0.02   0.06   0.00     0.05  -0.10   0.00    -0.03  -0.18   0.00
    17   6     0.02  -0.06   0.00    -0.05  -0.10   0.00     0.03  -0.18   0.00
    18   1     0.08   0.04   0.00    -0.03  -0.07   0.00    -0.07   0.15   0.00
    19   1    -0.04   0.18   0.00     0.01   0.32   0.00     0.26  -0.06   0.00
    20   1     0.01   0.15   0.00     0.25   0.21   0.00     0.06  -0.01   0.00
    21   1    -0.20   0.12   0.00    -0.25   0.21   0.00     0.20   0.00   0.00
    22   1     0.08  -0.04   0.00     0.03  -0.07   0.00     0.07   0.15   0.00
    23   1    -0.04  -0.18   0.00    -0.01   0.32   0.00    -0.26  -0.06   0.00
    24   1    -0.20  -0.12   0.00     0.25   0.21   0.00    -0.20   0.00   0.00
    25   7     0.24   0.19   0.00     0.02  -0.12   0.00     0.06  -0.13   0.00
    26   1     0.45   0.05   0.00     0.00  -0.11   0.00     0.11  -0.17   0.00
    27   7     0.24  -0.19   0.00    -0.02  -0.12   0.00    -0.06  -0.13   0.00
    28   1     0.45  -0.05   0.00     0.00  -0.11   0.00    -0.11  -0.17   0.00
                     10                     11                     12
                      A                      A                      A
 Frequencies --    399.6474               400.5710               412.9424
 Red. masses --      6.5247                 8.7327                 3.4630
 Frc consts  --      0.6140                 0.8256                 0.3479
 IR Inten    --     11.7083                 0.0454                 0.0000
 Raman Activ --      2.2670                 4.0590                 1.4887
 Depolar (P) --      0.7500                 0.7500                 0.7500
 Depolar (U) --      0.8571                 0.8571                 0.8571
  Atom  AN      X      Y      Z        X      Y      Z        X      Y      Z
     1   6     0.00   0.00  -0.06     0.04  -0.04   0.00     0.00   0.00   0.01
     2   6     0.00   0.00   0.15     0.16  -0.12   0.00     0.00   0.00  -0.12
     3   6     0.00   0.00  -0.12     0.15  -0.16   0.00     0.00   0.00   0.08
     4   6     0.00   0.00  -0.19     0.07  -0.14   0.00     0.00   0.00  -0.06
     5   6     0.00   0.00   0.10    -0.07  -0.15   0.00     0.00   0.00  -0.16
     6   6     0.00   0.00  -0.09    -0.07  -0.09   0.00     0.00   0.00   0.11
     7   6     0.00   0.00   0.01     0.10  -0.11   0.00     0.00   0.00   0.19
     8   6     0.00   0.00  -0.19     0.07   0.14   0.00     0.00   0.00   0.06
     9   6     0.00   0.00  -0.12     0.15   0.16   0.00     0.00   0.00  -0.08
    10   6     0.00   0.00   0.01     0.10   0.11   0.00     0.00   0.00  -0.19
    11   6     0.00   0.00   0.15     0.16   0.12   0.00     0.00   0.00   0.12
    12   1     0.00   0.00   0.43     0.22   0.08   0.00     0.00   0.00   0.25
    13   6     0.00   0.00  -0.06     0.04   0.04   0.00     0.00   0.00  -0.01
    14   6     0.00   0.00  -0.09    -0.07   0.09   0.00     0.00   0.00  -0.11
    15   6     0.00   0.00   0.10    -0.07   0.15   0.00     0.00   0.00   0.16
    16   6     0.00   0.00   0.36    -0.22   0.17   0.00     0.00   0.00   0.11
    17   6     0.00   0.00   0.36    -0.22  -0.17   0.00     0.00   0.00  -0.11
    18   1     0.00   0.00   0.19    -0.03  -0.19   0.00     0.00   0.00   0.37
    19   1     0.00   0.00  -0.06     0.04   0.08   0.00     0.00   0.00   0.03
    20   1     0.00   0.00   0.43     0.22  -0.08   0.00     0.00   0.00  -0.25
    21   1     0.00   0.00  -0.10    -0.11  -0.07   0.00     0.00   0.00   0.32
    22   1     0.00   0.00   0.19    -0.03   0.19   0.00     0.00   0.00  -0.37
    23   1     0.00   0.00  -0.06     0.04  -0.08   0.00     0.00   0.00  -0.03
    24   1     0.00   0.00  -0.10    -0.11   0.07   0.00     0.00   0.00  -0.32
    25   7     0.00   0.00  -0.15    -0.13   0.26   0.00     0.00   0.00   0.00
    26   1     0.00   0.00  -0.11    -0.06   0.21   0.00     0.00   0.00  -0.30
    27   7     0.00   0.00  -0.15    -0.13  -0.26   0.00     0.00   0.00   0.00
    28   1     0.00   0.00  -0.11    -0.06  -0.21   0.00     0.00   0.00   0.30
                     13                     14                     15
                      A                      A                      A
 Frequencies --    457.9456               492.1669               494.6656
 Red. masses --      5.0968                 3.4922                 7.0452
 Frc consts  --      0.6298                 0.4984                 1.0157
 IR Inten    --     31.4028                 2.2843                 0.9146
 Raman Activ --      1.1430                 0.0776                41.2493
 Depolar (P) --      0.3622                 0.7500                 0.0667
 Depolar (U) --      0.5318                 0.8571                 0.1250
  Atom  AN      X      Y      Z        X      Y      Z        X      Y      Z
     1   6    -0.01   0.00   0.00     0.00   0.00   0.18     0.16  -0.01   0.00
     2   6     0.00  -0.01   0.00     0.00   0.00  -0.11     0.27  -0.09   0.00
     3   6    -0.01  -0.04   0.00     0.00   0.00  -0.14     0.19  -0.12   0.00
     4   6     0.00  -0.02   0.00     0.00   0.00   0.14     0.05  -0.11   0.00
     5   6     0.02   0.00   0.00     0.00   0.00  -0.01     0.00   0.01   0.00
     6   6     0.01   0.01   0.00     0.00   0.00  -0.15     0.02  -0.05   0.00
     7   6     0.00  -0.06   0.00     0.00   0.00   0.04     0.02  -0.07   0.00
     8   6     0.00  -0.02   0.00     0.00   0.00   0.14    -0.05  -0.11   0.00
     9   6     0.01  -0.04   0.00     0.00   0.00  -0.14    -0.19  -0.12   0.00
    10   6     0.00  -0.06   0.00     0.00   0.00   0.04    -0.02  -0.07   0.00
    11   6     0.00  -0.01   0.00     0.00   0.00  -0.11    -0.27  -0.09   0.00
    12   1    -0.02   0.00   0.00     0.00   0.00  -0.14    -0.33  -0.06   0.00
    13   6     0.01   0.00   0.00     0.00   0.00   0.18    -0.16  -0.01   0.00
    14   6    -0.01   0.01   0.00     0.00   0.00  -0.15    -0.02  -0.05   0.00
    15   6    -0.02   0.00   0.00     0.00   0.00  -0.01     0.00   0.01   0.00
    16   6     0.05  -0.05   0.00     0.00   0.00   0.06    -0.05   0.19   0.00
    17   6    -0.05  -0.05   0.00     0.00   0.00   0.06     0.05   0.19   0.00
    18   1     0.01  -0.05   0.00     0.00   0.00   0.25    -0.08  -0.13   0.00
    19   1    -0.01  -0.02   0.00     0.00   0.00   0.45     0.16   0.14   0.00
    20   1     0.02   0.00   0.00     0.00   0.00  -0.14     0.33  -0.06   0.00
    21   1     0.01   0.02   0.00     0.00   0.00  -0.32     0.01  -0.04   0.00
    22   1    -0.01  -0.05   0.00     0.00   0.00   0.25     0.08  -0.13   0.00
    23   1     0.01  -0.02   0.00     0.00   0.00   0.45    -0.16   0.14   0.00
    24   1    -0.01   0.02   0.00     0.00   0.00  -0.32    -0.01  -0.04   0.00
    25   7     0.36   0.14   0.00     0.00   0.00  -0.02    -0.06   0.21   0.00
    26   1     0.58  -0.02   0.00     0.00   0.00  -0.02    -0.06   0.21   0.00
    27   7    -0.36   0.14   0.00     0.00   0.00  -0.02     0.06   0.21   0.00
    28   1    -0.58  -0.02   0.00     0.00   0.00  -0.02     0.06   0.21   0.00
                     16                     17                     18
                      A                      A                      A
 Frequencies --    511.1735               554.1768               566.9878
 Red. masses --      4.7485                 3.8234                 7.1539
 Frc consts  --      0.7310                 0.6918                 1.3550
 IR Inten    --      1.3429                 0.0000                 0.6343
 Raman Activ --      0.7309                 0.2664                14.7160
 Depolar (P) --      0.7500                 0.7500                 0.0566
 Depolar (U) --      0.8571                 0.8571                 0.1072
  Atom  AN      X      Y      Z        X      Y      Z        X      Y      Z
     1   6     0.03  -0.13   0.00     0.00   0.00   0.11    -0.06  -0.08   0.00
     2   6    -0.02  -0.05   0.00     0.00   0.00  -0.09     0.09  -0.12   0.00
     3   6     0.01   0.15   0.00     0.00   0.00   0.13     0.10   0.11   0.00
     4   6    -0.13   0.05   0.00     0.00   0.00   0.24    -0.04  -0.02   0.00
     5   6    -0.07  -0.02   0.00     0.00   0.00  -0.03    -0.18  -0.03   0.00
     6   6    -0.06  -0.17   0.00     0.00   0.00  -0.05    -0.24  -0.16   0.00
     7   6     0.24   0.10   0.00     0.00   0.00  -0.10    -0.01   0.32   0.00
     8   6    -0.13  -0.05   0.00     0.00   0.00  -0.24     0.04  -0.02   0.00
     9   6     0.01  -0.15   0.00     0.00   0.00  -0.13    -0.10   0.11   0.00
    10   6     0.24  -0.10   0.00     0.00   0.00   0.10     0.01   0.32   0.00
    11   6    -0.02   0.05   0.00     0.00   0.00   0.09    -0.09  -0.12   0.00
    12   1    -0.20   0.15   0.00     0.00   0.00   0.43    -0.01  -0.16   0.00
    13   6     0.03   0.13   0.00     0.00   0.00  -0.11     0.06  -0.08   0.00
    14   6    -0.06   0.17   0.00     0.00   0.00   0.05     0.24  -0.16   0.00
    15   6    -0.07   0.02   0.00     0.00   0.00   0.03     0.18  -0.03   0.00
    16   6    -0.01  -0.01   0.00     0.00   0.00   0.12     0.06  -0.01   0.00
    17   6    -0.01   0.01   0.00     0.00   0.00  -0.12    -0.06  -0.01   0.00
    18   1     0.42   0.21   0.00     0.00   0.00  -0.24    -0.12   0.26   0.00
    19   1     0.03  -0.09   0.00     0.00   0.00   0.08    -0.06   0.15   0.00
    20   1    -0.20  -0.15   0.00     0.00   0.00  -0.43     0.01  -0.16   0.00
    21   1    -0.03  -0.18   0.00     0.00   0.00  -0.26    -0.24  -0.16   0.00
    22   1     0.42  -0.21   0.00     0.00   0.00   0.24     0.12   0.26   0.00
    23   1     0.03   0.09   0.00     0.00   0.00  -0.08     0.06   0.15   0.00
    24   1    -0.03   0.18   0.00     0.00   0.00   0.26     0.24  -0.16   0.00
    25   7    -0.01  -0.01   0.00     0.00   0.00  -0.02     0.07  -0.02   0.00
    26   1    -0.01  -0.01   0.00     0.00   0.00  -0.24     0.07  -0.02   0.00
    27   7    -0.01   0.01   0.00     0.00   0.00   0.02    -0.07  -0.02   0.00
    28   1    -0.01   0.01   0.00     0.00   0.00   0.24    -0.07  -0.02   0.00
                     19                     20                     21
                      A                      A                      A
 Frequencies --    573.4809               579.3287               605.4009
 Red. masses --      4.1955                 3.0804                 6.5581
 Frc consts  --      0.8130                 0.6091                 1.4162
 IR Inten    --      8.3509                 0.0000                 0.1696
 Raman Activ --      0.0019                 0.2055                 0.4914
 Depolar (P) --      0.7500                 0.7500                 0.7500
 Depolar (U) --      0.8571                 0.8571                 0.8571
  Atom  AN      X      Y      Z        X      Y      Z        X      Y      Z
     1   6     0.00   0.00  -0.05     0.00   0.00   0.14     0.13  -0.02   0.00
     2   6     0.00   0.00   0.09     0.00   0.00  -0.12    -0.10   0.11   0.00
     3   6     0.00   0.00  -0.19     0.00   0.00  -0.05    -0.09   0.14   0.00
     4   6     0.00   0.00   0.01     0.00   0.00   0.01     0.01   0.07   0.00
     5   6     0.00   0.00   0.23     0.00   0.00   0.04     0.13  -0.01   0.00
     6   6     0.00   0.00   0.00     0.00   0.00  -0.13     0.21   0.05   0.00
     7   6     0.00   0.00   0.00     0.00   0.00   0.14    -0.08   0.13   0.00
     8   6     0.00   0.00   0.01     0.00   0.00  -0.01     0.01  -0.07   0.00
     9   6     0.00   0.00  -0.19     0.00   0.00   0.05    -0.09  -0.14   0.00
    10   6     0.00   0.00   0.00     0.00   0.00  -0.14    -0.08  -0.13   0.00
    11   6     0.00   0.00   0.09     0.00   0.00   0.12    -0.10  -0.11   0.00
    12   1     0.00   0.00   0.27     0.00   0.00   0.16    -0.23  -0.04   0.00
    13   6     0.00   0.00  -0.05     0.00   0.00  -0.14     0.13   0.02   0.00
    14   6     0.00   0.00   0.00     0.00   0.00   0.13     0.21  -0.05   0.00
    15   6     0.00   0.00   0.23     0.00   0.00  -0.04     0.13   0.01   0.00
    16   6     0.00   0.00  -0.19     0.00   0.00  -0.13    -0.12   0.14   0.00
    17   6     0.00   0.00  -0.19     0.00   0.00   0.13    -0.12  -0.14   0.00
    18   1     0.00   0.00   0.37     0.00   0.00   0.28     0.06   0.21   0.00
    19   1     0.00   0.00  -0.14     0.00   0.00   0.34     0.12  -0.23   0.00
    20   1     0.00   0.00   0.27     0.00   0.00  -0.16    -0.23   0.04   0.00
    21   1     0.00   0.00  -0.23     0.00   0.00  -0.26     0.21   0.05   0.00
    22   1     0.00   0.00   0.37     0.00   0.00  -0.28     0.06  -0.21   0.00
    23   1     0.00   0.00  -0.14     0.00   0.00  -0.34     0.12   0.23   0.00
    24   1     0.00   0.00  -0.23     0.00   0.00   0.26     0.21  -0.05   0.00
    25   7     0.00   0.00   0.09     0.00   0.00   0.00    -0.09   0.21   0.00
    26   1     0.00   0.00  -0.27     0.00   0.00   0.34    -0.05   0.18   0.00
    27   7     0.00   0.00   0.09     0.00   0.00   0.00    -0.09  -0.21   0.00
    28   1     0.00   0.00  -0.27     0.00   0.00  -0.34    -0.05  -0.18   0.00
                     22                     23                     24
                      A                      A                      A
 Frequencies --    664.5519               687.8302               722.4615
 Red. masses --      5.2198                 5.9199                 2.7696
 Frc consts  --      1.3582                 1.6502                 0.8517
 IR Inten    --      4.3768                 0.0000                71.1201
 Raman Activ --      0.9152                 0.1067                 0.0102
 Depolar (P) --      0.7500                 0.7500                 0.7500
 Depolar (U) --      0.8571                 0.8571                 0.8571
  Atom  AN      X      Y      Z        X      Y      Z        X      Y      Z
     1   6    -0.18  -0.06   0.00     0.00   0.00   0.02     0.00   0.00  -0.11
     2   6    -0.01  -0.14   0.00     0.00   0.00   0.01     0.00   0.00   0.06
     3   6     0.05   0.03   0.00     0.00   0.00  -0.17     0.00   0.00  -0.12
     4   6     0.18   0.09   0.00     0.00   0.00  -0.04     0.00   0.00   0.16
     5   6     0.00   0.19   0.00     0.00   0.00   0.26     0.00   0.00  -0.13
     6   6    -0.01   0.07   0.00     0.00   0.00  -0.02     0.00   0.00   0.07
     7   6     0.02   0.07   0.00     0.00   0.00   0.10     0.00   0.00  -0.03
     8   6     0.18  -0.09   0.00     0.00   0.00   0.04     0.00   0.00   0.16
     9   6     0.05  -0.03   0.00     0.00   0.00   0.17     0.00   0.00  -0.12
    10   6     0.02  -0.07   0.00     0.00   0.00  -0.10     0.00   0.00  -0.03
    11   6    -0.01   0.14   0.00     0.00   0.00  -0.01     0.00   0.00   0.06
    12   1     0.03   0.12   0.00     0.00   0.00  -0.12     0.00   0.00   0.36
    13   6    -0.18   0.06   0.00     0.00   0.00  -0.02     0.00   0.00  -0.11
    14   6    -0.01  -0.07   0.00     0.00   0.00   0.02     0.00   0.00   0.07
    15   6     0.00  -0.19   0.00     0.00   0.00  -0.26     0.00   0.00  -0.13
    16   6    -0.17  -0.08   0.00     0.00   0.00   0.33     0.00   0.00   0.02
    17   6    -0.17   0.08   0.00     0.00   0.00  -0.33     0.00   0.00   0.02
    18   1     0.09   0.11   0.00     0.00   0.00   0.24     0.00   0.00   0.28
    19   1    -0.18  -0.03   0.00     0.00   0.00  -0.07     0.00   0.00   0.11
    20   1     0.03  -0.12   0.00     0.00   0.00   0.12     0.00   0.00   0.36
    21   1     0.20  -0.06   0.00     0.00   0.00  -0.38     0.00   0.00   0.37
    22   1     0.09  -0.11   0.00     0.00   0.00  -0.24     0.00   0.00   0.28
    23   1    -0.18   0.03   0.00     0.00   0.00   0.07     0.00   0.00   0.11
    24   1     0.20   0.06   0.00     0.00   0.00   0.38     0.00   0.00   0.37
    25   7     0.06   0.08   0.00     0.00   0.00  -0.06     0.00   0.00  -0.03
    26   1     0.41  -0.16   0.00     0.00   0.00  -0.23     0.00   0.00   0.25
    27   7     0.06  -0.08   0.00     0.00   0.00   0.06     0.00   0.00  -0.03
    28   1     0.41   0.16   0.00     0.00   0.00   0.23     0.00   0.00   0.25
                     25                     26                     27
                      A                      A                      A
 Frequencies --    726.5162               754.2840               776.2920
 Red. masses --      5.7139                 2.3191                 1.2260
 Frc consts  --      1.7770                 0.7774                 0.4353
 IR Inten    --      3.1569                 0.0000                 3.2064
 Raman Activ --      2.1812                 0.1067                 0.0499
 Depolar (P) --      0.7500                 0.7500                 0.7500
 Depolar (U) --      0.8571                 0.8571                 0.8571
  Atom  AN      X      Y      Z        X      Y      Z        X      Y      Z
     1   6    -0.20  -0.01   0.00     0.00   0.00  -0.06     0.00   0.00   0.04
     2   6    -0.20   0.03   0.00     0.00   0.00   0.00     0.00   0.00   0.05
     3   6    -0.06  -0.08   0.00     0.00   0.00  -0.12     0.00   0.00   0.01
     4   6     0.03  -0.05   0.00     0.00   0.00   0.18     0.00   0.00   0.00
     5   6     0.08  -0.04   0.00     0.00   0.00  -0.02     0.00   0.00  -0.03
     6   6     0.08   0.10   0.00     0.00   0.00   0.01     0.00   0.00   0.03
     7   6     0.24  -0.16   0.00     0.00   0.00   0.06     0.00   0.00  -0.06
     8   6     0.03   0.05   0.00     0.00   0.00  -0.18     0.00   0.00   0.00
     9   6    -0.06   0.08   0.00     0.00   0.00   0.12     0.00   0.00   0.01
    10   6     0.24   0.16   0.00     0.00   0.00  -0.06     0.00   0.00  -0.06
    11   6    -0.20  -0.03   0.00     0.00   0.00   0.00     0.00   0.00   0.05
    12   1    -0.14  -0.07   0.00     0.00   0.00  -0.36     0.00   0.00  -0.35
    13   6    -0.20   0.01   0.00     0.00   0.00   0.06     0.00   0.00   0.04
    14   6     0.08  -0.10   0.00     0.00   0.00  -0.01     0.00   0.00   0.03
    15   6     0.08   0.04   0.00     0.00   0.00   0.02     0.00   0.00  -0.03
    16   6     0.07   0.06   0.00     0.00   0.00  -0.05     0.00   0.00   0.01
    17   6     0.07  -0.06   0.00     0.00   0.00   0.05     0.00   0.00   0.01
    18   1     0.23  -0.16   0.00     0.00   0.00   0.08     0.00   0.00   0.44
    19   1    -0.20  -0.25   0.00     0.00   0.00   0.25     0.00   0.00  -0.36
    20   1    -0.14   0.07   0.00     0.00   0.00   0.36     0.00   0.00  -0.35
    21   1     0.15   0.06   0.00     0.00   0.00   0.19     0.00   0.00  -0.18
    22   1     0.23   0.16   0.00     0.00   0.00  -0.08     0.00   0.00   0.44
    23   1    -0.20   0.25   0.00     0.00   0.00  -0.25     0.00   0.00  -0.36
    24   1     0.15  -0.06   0.00     0.00   0.00  -0.19     0.00   0.00  -0.18
    25   7    -0.03   0.01   0.00     0.00   0.00   0.05     0.00   0.00  -0.01
    26   1    -0.20   0.12   0.00     0.00   0.00  -0.46     0.00   0.00   0.12
    27   7    -0.03  -0.01   0.00     0.00   0.00  -0.05     0.00   0.00  -0.01
    28   1    -0.20  -0.12   0.00     0.00   0.00   0.46     0.00   0.00   0.12
                     28                     29                     30
                      A                      A                      A
 Frequencies --    801.6405               803.3463               821.1876
 Red. masses --      5.8702                 1.4102                 2.0734
 Frc consts  --      2.2226                 0.5362                 0.8238
 IR Inten    --      5.8412                 0.0000                 0.0000
 Raman Activ --      4.1494                 0.0020                 0.7702
 Depolar (P) --      0.0786                 0.7500                 0.7500
 Depolar (U) --      0.1458                 0.8571                 0.8571
  Atom  AN      X      Y      Z        X      Y      Z        X      Y      Z
     1   6     0.24   0.01   0.00     0.00   0.00  -0.05     0.00   0.00  -0.02
     2   6    -0.09   0.22   0.00     0.00   0.00  -0.03     0.00   0.00  -0.08
     3   6    -0.10   0.07   0.00     0.00   0.00   0.01     0.00   0.00   0.12
     4   6    -0.09  -0.05   0.00     0.00   0.00   0.05     0.00   0.00  -0.09
     5   6    -0.07  -0.14   0.00     0.00   0.00  -0.03     0.00   0.00   0.10
     6   6    -0.07  -0.19   0.00     0.00   0.00   0.00     0.00   0.00  -0.07
     7   6     0.01  -0.04   0.00     0.00   0.00   0.00     0.00   0.00  -0.04
     8   6     0.09  -0.05   0.00     0.00   0.00  -0.05     0.00   0.00   0.09
     9   6     0.10   0.07   0.00     0.00   0.00  -0.01     0.00   0.00  -0.12
    10   6    -0.01  -0.04   0.00     0.00   0.00   0.00     0.00   0.00   0.04
    11   6     0.09   0.22   0.00     0.00   0.00   0.03     0.00   0.00   0.08
    12   1     0.30   0.11   0.00     0.00   0.00  -0.26     0.00   0.00  -0.28
    13   6    -0.24   0.01   0.00     0.00   0.00   0.05     0.00   0.00   0.02
    14   6     0.07  -0.19   0.00     0.00   0.00   0.00     0.00   0.00   0.07
    15   6     0.07  -0.14   0.00     0.00   0.00   0.03     0.00   0.00  -0.10
    16   6    -0.05   0.03   0.00     0.00   0.00   0.08     0.00   0.00   0.00
    17   6     0.05   0.03   0.00     0.00   0.00  -0.08     0.00   0.00   0.00
    18   1     0.10   0.01   0.00     0.00   0.00  -0.04     0.00   0.00  -0.11
    19   1     0.24  -0.04   0.00     0.00   0.00   0.28     0.00   0.00   0.47
    20   1    -0.30   0.11   0.00     0.00   0.00   0.26     0.00   0.00   0.28
    21   1    -0.32  -0.04   0.00     0.00   0.00   0.21     0.00   0.00   0.21
    22   1    -0.10   0.01   0.00     0.00   0.00   0.04     0.00   0.00   0.11
    23   1    -0.24  -0.04   0.00     0.00   0.00  -0.28     0.00   0.00  -0.47
    24   1     0.32  -0.04   0.00     0.00   0.00  -0.21     0.00   0.00  -0.21
    25   7    -0.01   0.08   0.00     0.00   0.00  -0.07     0.00   0.00   0.03
    26   1     0.06   0.04   0.00     0.00   0.00   0.54     0.00   0.00  -0.32
    27   7     0.01   0.08   0.00     0.00   0.00   0.07     0.00   0.00  -0.03
    28   1    -0.06   0.04   0.00     0.00   0.00  -0.54     0.00   0.00   0.32
                     31                     32                     33
                      A                      A                      A
 Frequencies --    838.2947               845.8050               873.6910
 Red. masses --      3.2428                 1.4722                 1.3663
[...]
 38881,0.00002285,0.,-0.00215768,0.00105312,0.,-0.01514090,-0.01936390,
 0.,0.00411200,-0.00236086,0.,-0.00136648,-0.00066902,0.,0.00006931,0.0
 0015879,0.,-0.12005179,-0.26328411,-0.00000010,0.00062453,0.00017601,0
 .,0.00091802,0.00161636,0.,0.00212391,0.00369819,0.,-0.00002304,-0.000
 03966,0.,-0.00000755,-0.00000031,0.,-0.00007245,0.00012751,0.,0.000074
 36,-0.00003316,0.,-0.00013687,0.00000460,0.,0.00006410,0.00002266,0.,0
 .00038915,-0.00002863,0.,0.12928089,0.27795182,0.,0.,-0.00016656,0.,0.
 ,-0.00204904,0.,0.,0.00243992,0.,0.,0.00384104,0.,0.,0.00020629,0.,0.,
 -0.00001323,-0.00000006,-0.00000010,-0.03604992,0.,0.,-0.00056697,0.,0
 .,0.00958772,0.,0.,0.00435259,0.,0.,0.00018854,0.,0.,0.00020652,0.,0.,
 -0.00077326,0.,0.,0.00016005,0.,0.,-0.00083536,0.,0.,0.00004403,0.,0.,
 0.00009106,0.00000006,0.00000011,0.02456483,-0.33580820,-0.00199311,-0
 .00000003,-0.01188775,-0.00266433,0.,0.00100027,0.00289773,0.,0.000590
 92,-0.00000821,0.,0.00085742,-0.00279565,0.,-0.01105478,0.00205723,0.,
 -0.00062477,-0.00048402,0.,-0.00000750,0.00000777,0.,0.00002852,0.0000
 4482,0.,-0.00009117,0.00033790,0.,0.00000062,-0.00000183,0.,-0.0000006
 2,0.00000775,0.,0.00001345,-0.00000288,0.,-0.00000748,-0.00002353,0.,-
 0.00003267,-0.00001075,0.,0.00015979,-0.00025703,0.,-0.00063239,0.0007
 0108,0.,0.00000797,0.00003212,0.,0.35607864,-0.00236826,-0.05898863,0.
 ,0.02864243,0.00459159,0.,0.00214501,-0.00463670,0.,0.00029852,-0.0011
 4899,0.,-0.00216180,-0.00455865,0.,-0.02879564,0.00372883,0.,0.0009682
 3,0.00073421,0.,-0.00027401,0.00016164,0.,-0.00019612,-0.00023970,0.,0
 .00036003,-0.00031768,0.,0.00007718,0.00007604,0.,-0.00000698,0.000001
 37,0.,0.00000018,-0.00007546,0.,-0.00005283,0.00007946,0.,0.00009023,0
 .00006236,0.,0.00014383,-0.00053099,0.,-0.00137788,0.00082909,0.,-0.00
 002069,-0.00003662,0.,0.00235562,0.05847759,-0.00000003,0.,-0.03717840
 ,0.,0.,0.00334070,0.,0.,0.00812957,0.,0.,-0.00081114,0.,0.,0.00661153,
 -0.00000001,0.,0.00307841,0.,0.,0.00020325,0.,0.,-0.00098637,0.,0.,0.0
 0016268,0.,0.,-0.00047513,0.,0.,0.00003808,0.,0.,-0.00000144,0.,0.,0.0
 0001527,0.,0.,0.00006684,0.,0.,0.00008857,0.,0.,-0.00014447,0.,0.,0.00
 010464,0.,0.,0.00010343,0.00000003,0.00000001,0.02562653,0.01182558,0.
 01544849,0.,-0.12376785,-0.11618153,-0.00000006,-0.01099673,-0.0281795
 4,-0.00000001,-0.00511611,0.00157305,0.,-0.00078199,0.00074601,0.,-0.0
 0099900,0.00326314,0.,0.00125409,-0.00202707,0.,-0.00015852,-0.0016843
 9,0.,0.00009132,-0.00019491,0.,0.00014041,0.00044827,0.,0.00005389,0.0
 0012582,0.,-0.00003399,0.00000770,0.,-0.00002241,-0.00002359,0.,-0.000
 03792,-0.00014988,0.,-0.00045275,0.00024683,0.,-0.00002221,0.00014543,
 0.,0.00004199,0.00003126,0.,-0.00012915,0.00120808,0.,0.00081148,-0.00
 048829,0.,0.12786489,-0.01575077,-0.01844211,-0.00000001,-0.11637229,-
 0.26788581,-0.00000012,0.00118846,0.00172755,0.,0.00054943,0.00138170,
 0.,0.00066643,0.00028912,0.,0.00418546,-0.00293103,0.,0.00169684,0.000
 73184,0.,0.00042165,-0.00007948,0.,0.00011356,0.00026460,0.,-0.0004370
 7,0.00010091,0.,-0.00004724,-0.00002487,0.,-0.00000770,0.00001005,0.,-
 0.00002225,0.00005361,0.,0.00004626,-0.00002796,0.,-0.00006728,-0.0000
 2088,0.,0.00002372,-0.00000842,0.,-0.00002601,-0.00006356,0.,-0.000379
 31,0.00038892,0.,0.00024586,0.00092959,0.,0.12506538,0.28452887,0.,0.,
 0.00427926,-0.00000007,-0.00000013,-0.03677047,0.,0.,0.00334085,0.,0.,
 0.00572399,0.,0.,-0.00069823,0.,0.,0.00761030,0.,0.,-0.00326620,0.,0.,
 0.00019145,0.,0.,-0.00005111,0.,0.,-0.00012891,0.,0.,0.00002759,0.,0.,
 0.00001466,0.,0.,-0.00001484,0.,0.,0.00000642,0.,0.,0.00002162,0.,0.,0
 .00015072,0.,0.,-0.00120597,0.,0.,0.00023756,0.,0.,-0.00433569,0.00000
 007,0.00000014,0.02466928,0.01195536,-0.01544025,0.,-0.00113786,-0.003
 27070,0.,-0.00068881,-0.00047977,0.,-0.00542646,-0.00193979,0.,-0.0120
 4228,0.02848966,0.00000001,-0.13099143,0.12322955,0.00000005,0.0002783
 9,-0.00005997,0.,0.00011584,0.00165280,0.,-0.00039450,-0.00008394,0.,-
 0.00014748,-0.00012778,0.,-0.00007504,0.00010754,0.,-0.00005981,0.0000
 0217,0.,-0.00003354,0.00005708,0.,0.00006171,-0.00015170,0.,0.00017518
 ,0.00000269,0.,-0.00029216,0.00039807,0.,0.00033255,0.00190988,0.,-0.0
 0002237,0.00007023,0.,0.00080272,0.00056805,0.,0.00039453,-0.00080888,
 0.,0.13629955,0.01416331,-0.01624325,0.,-0.00336873,-0.00269803,0.,-0.
 00080262,0.00020636,0.,-0.00151416,0.00097458,0.,0.00103277,0.00474388
 ,0.,0.12551714,-0.26803260,-0.00000010,0.00013214,-0.00016138,0.,0.000
 14068,0.00031188,0.,0.00008814,0.00015631,0.,-0.00015262,0.00002497,0.
 ,-0.00006139,-0.00004070,0.,-0.00000614,-0.00000023,0.,0.00000508,0.00
 004948,0.,0.00004480,-0.00009377,0.,0.00011627,-0.00011422,0.,0.000020
 39,0.00020289,0.,0.00034976,-0.00134917,0.,-0.00002641,0.00003941,0.,-
 0.00013719,0.00097916,0.,0.00067949,-0.00077206,0.,-0.13324349,0.28364
 588,0.,0.,0.00452189,0.,0.,0.00658326,0.,0.,-0.00090677,0.,0.,0.007438
 94,0.,0.,0.00397109,0.00000005,-0.00000010,-0.04013935,0.,0.,-0.000796
 17,0.,0.,0.00036899,0.,0.,-0.00044904,0.,0.,0.00011916,0.,0.,-0.000046
 30,0.,0.,-0.00002899,0.,0.,0.00002716,0.,0.,-0.00001719,0.,0.,0.000121
 92,0.,0.,0.00021923,0.,0.,-0.00418831,0.,0.,0.00001667,0.,0.,-0.003650
 84,0.,0.,-0.00016160,-0.00000005,0.00000011,0.02658697,-0.00053042,0.0
 0006805,0.,0.00009933,0.00147193,0.,-0.00501543,-0.00215463,0.,-0.0004
 7022,-0.00029704,0.,0.00032786,0.00006180,0.,-0.00015057,-0.00016369,0
 .,-0.01190758,0.02950760,0.,-0.00167992,-0.00273886,0.,0.00998008,-0.0
 1415674,0.,-0.12773428,0.11944414,0.00000003,0.00117560,-0.00139625,0.
 ,-0.00012915,0.00037931,0.,0.00009458,0.00040761,0.,0.00021757,-0.0001
 4817,0.,0.00049176,-0.00064786,0.,-0.00020616,-0.00010526,0.,-0.000117
 08,-0.00012219,0.,0.00095247,-0.00028016,0.,-0.00008418,0.00014069,0.,
 -0.00002803,-0.00005266,0.,0.00000133,0.00000479,0.,0.13464406,0.00007
 245,0.00012751,0.,0.00002304,-0.00003966,0.,-0.00091802,0.00161636,0.,
 -0.00062453,0.00017601,0.,0.00013687,0.00000460,0.,-0.00007436,-0.0000
 3316,0.,-0.00212391,0.00369819,0.,-0.00411200,-0.00236086,0.,0.0151409
 0,-0.01936390,0.,0.12005179,-0.26328412,-0.00000007,0.00215768,0.00105
 312,0.,-0.00120808,0.00038892,0.,-0.00038881,0.00002285,0.,-0.00006931
 ,0.00015879,0.,0.00136648,-0.00066902,0.,-0.00038915,-0.00002863,0.,-0
 .00006410,0.00002266,0.,0.00028016,0.00088109,0.,-0.00000351,0.,0.,0.0
 0000755,-0.00000031,0.,0.00001411,-0.00000911,0.,-0.12928089,0.2779518
 3,0.,0.,-0.00077327,0.,0.,0.00018854,0.,0.,0.00958772,0.,0.,-0.0005669
 7,0.,0.,-0.00083536,0.,0.,0.00016005,0.,0.,0.00435259,0.,0.,0.00384104
 ,0.,0.,0.00243992,0.00000003,-0.00000007,-0.03604992,0.,0.,-0.00204904
 ,0.,0.,0.00023756,0.,0.,-0.00016655,0.,0.,-0.00001323,0.,0.,0.00020629
 ,0.,0.,0.00009106,0.,0.,0.00004403,0.,0.,-0.00561383,0.,0.,-0.00002061
 ,0.,0.,0.00020652,0.,0.,0.00009078,-0.00000003,0.00000008,0.02456483,0
 .00001345,0.00000288,0.,0.00000062,0.00000183,0.,0.00002852,-0.0000448
 2,0.,-0.00000750,-0.00000777,0.,-0.00003267,0.00001075,0.,-0.00000748,
 0.00002353,0.,-0.00009118,-0.00033790,0.,0.00059092,0.00000821,0.,0.00
 100027,-0.00289773,0.,-0.00062477,0.00048402,0.,-0.01188775,0.00266433
 ,0.,0.00081148,-0.00024586,0.,-0.33580820,0.00199311,-0.00000003,-0.01
 105478,-0.00205723,0.,0.00085742,0.00279565,0.,-0.00063239,-0.00070107
 ,0.,0.00015979,0.00025703,0.,-0.00008418,0.00000351,0.,-0.00001265,-0.
 00000011,0.,-0.00000062,-0.00000775,0.,0.00000244,0.00000407,0.,0.0000
 0797,-0.00003212,0.,0.35607864,-0.00000018,-0.00007546,0.,-0.00007718,
 0.00007604,0.,0.00019612,-0.00023970,0.,0.00027401,0.00016164,0.,-0.00
 009023,0.00006236,0.,0.00005283,0.00007946,0.,-0.00036003,-0.00031768,
 0.,-0.00029852,-0.00114899,0.,-0.00214501,-0.00463670,0.,-0.00096823,0
 .00073421,0.,-0.02864243,0.00459159,0.,0.00048829,0.00092959,0.,0.0023
 6826,-0.05898863,0.,0.02879564,0.00372883,0.,0.00216180,-0.00455865,0.
 ,0.00137788,0.00082909,0.,-0.00014383,-0.00053099,0.,-0.00014069,0.,0.
 ,0.00000011,0.00000465,0.,0.00000698,0.00000137,0.,-0.00000976,-0.0000
 0603,0.,0.00002069,-0.00003662,0.,-0.00235562,0.05847759,0.,0.,0.00001
 527,0.,0.,0.00003808,0.,0.,0.00016268,0.,0.,-0.00098637,0.,0.,0.000088
 57,0.,0.,0.00006684,0.,0.,-0.00047513,0.,0.,-0.00081114,0.,0.,0.008129
 57,0.,0.,0.00020325,0.,0.,0.00334070,0.,0.,-0.00433569,-0.00000003,0.,
 -0.03717840,0.,0.,0.00307841,0.,0.,0.00661153,0.,0.,0.00010464,0.,0.,-
 0.00014447,0.,0.,-0.00002061,0.,0.,-0.00001451,0.,0.,-0.00000144,0.,0.
 ,0.00000354,0.,0.,0.00010343,0.00000004,0.,0.02562653,-0.00003353,-0.0
 0005708,0.,-0.00007504,-0.00010754,0.,-0.00039450,0.00008394,0.,0.0001
 1584,-0.00165280,0.,0.00017518,-0.00000269,0.,0.00006171,0.00015170,0.
 ,-0.00014748,0.00012778,0.,-0.00542646,0.00193979,0.,-0.00068881,0.000
 47977,0.,0.00027839,0.00005997,0.,-0.00113785,0.00327070,0.,0.00039453
 ,0.00080888,0.,0.01195536,0.01544025,0.,-0.13099143,-0.12322955,-0.000
 00003,-0.01204228,-0.02848966,0.,0.00033255,-0.00190987,0.,-0.00029216
 ,-0.00039807,0.,0.00000133,-0.00001411,0.,0.00000244,0.00000976,0.,-0.
 00005981,-0.00000217,0.,-0.00005557,-0.00001690,0.,-0.00002237,-0.0000
 7023,0.,0.00080272,-0.00056805,0.,0.13629955,-0.00000508,0.00004948,0.
 ,0.00006139,-0.00004070,0.,-0.00008814,0.00015631,0.,-0.00014068,0.000
 31188,0.,-0.00011627,-0.00011422,0.,-0.00004480,-0.00009377,0.,0.00015
 262,0.00002497,0.,0.00151416,0.00097458,0.,0.00080262,0.00020636,0.,-0
 .00013214,-0.00016138,0.,0.00336873,-0.00269803,0.,-0.00067949,-0.0007
 7206,0.,-0.01416331,-0.01624325,0.,-0.12551714,-0.26803260,-0.00000007
 ,-0.00103278,0.00474388,0.,-0.00034976,-0.00134917,0.,-0.00002039,0.00
 020289,0.,-0.00000479,-0.00000911,0.,-0.00000407,-0.00000603,0.,0.0000
 0614,-0.00000023,0.,0.00001690,0.00001233,0.,0.00002641,0.00003941,0.,
 0.00013719,0.00097916,0.,0.13324349,0.28364588,0.,0.,0.00002717,0.,0.,
 -0.00004630,0.,0.,-0.00044904,0.,0.,0.00036899,0.,0.,0.00012192,0.,0.,
 -0.00001719,0.,0.,0.00011916,0.,0.,0.00743894,0.,0.,-0.00090677,0.,0.,
 -0.00079617,0.,0.,0.00658326,0.,0.,-0.00016160,0.,0.,0.00452189,-0.000
 00003,-0.00000007,-0.04013935,0.,-0.00000002,0.00397109,0.,0.,-0.00418
 831,0.,0.,0.00021923,0.,0.,0.00009078,0.,0.,0.00000354,0.,0.,-0.000028
 99,0.,0.,0.00001245,0.,0.,0.00001667,0.,0.,-0.00365084,0.00000003,0.00
 000007,0.02658697,-0.00042676,-0.00020400,0.,-0.00044644,-0.00019631,0
 .,0.00031900,0.00001452,0.,-0.00178738,0.00037760,0.,-0.00808252,0.004
 32719,0.,-0.00019511,-0.00306546,0.,-0.00007651,0.00030840,0.,-0.00095
 698,0.00331406,0.,-0.00007718,0.00080094,0.,-0.00000813,-0.00009800,0.
 ,0.00121475,0.00204492,0.,0.00009493,0.00009209,0.,0.00189098,-0.00269
 719,0.,-0.00815192,0.00563017,-0.00000001,0.02226895,0.00119148,-0.000
 00003,-0.24209896,-0.17340420,0.00000064,-0.03589911,-0.03246106,0.000
 00015,0.00002214,-0.00007599,0.,-0.00021964,-0.00028877,0.,0.00001538,
 -0.00008426,0.,0.00038135,0.00018508,0.,0.00006672,0.00004144,0.,0.000
 10529,-0.00021756,0.,-0.00039988,0.00336115,0.,0.43268989,-0.00044274,
 0.00098455,0.,0.00073363,0.00013454,0.,-0.00060085,0.00046727,0.,-0.00
 098584,0.00021597,0.,0.00114690,0.00135959,0.,-0.00100996,-0.00031846,
 0.,0.00033623,-0.00060410,0.,0.01088373,0.00212518,0.,0.00147040,-0.00
 211050,0.,-0.00005693,0.00008393,0.,0.00056212,-0.00048817,0.,-0.00000
 841,-0.00012437,0.,-0.00189811,-0.00341357,0.,-0.00769233,-0.00159189,
 0.00000002,-0.00552666,-0.06754367,0.00000010,-0.23060391,-0.42490032,
 0.00000114,-0.03109598,0.00071327,0.00000009,-0.00012154,-0.00003237,0
 .,-0.00004699,0.00002985,0.,-0.00005788,-0.00004767,0.,-0.00025032,-0.
 00012565,0.,-0.00007486,-0.00023916,0.,0.00026906,-0.00012944,0.,0.000
 42177,-0.00178906,0.,0.05324925,0.77749427,0.,0.,0.00051796,0.,0.,-0.0
 0020087,0.,0.,0.00061872,0.,0.,-0.00189954,0.00000003,-0.00000002,0.00
 259672,0.,0.00000001,-0.00059256,0.,0.,-0.00008091,-0.00000002,-0.0000
 0002,0.00273151,0.,0.,-0.00016329,0.,0.,0.00011645,0.,0.,-0.00017280,0
 .,0.,0.00024071,0.,0.,-0.00083979,0.,0.00000001,0.00182615,-0.00000003
 ,0.00000010,-0.00579648,0.00000081,0.00000104,-0.04134612,0.00000009,0
 .00000013,0.01948754,0.,0.,-0.00000608,0.,0.,-0.00011647,0.,0.,-0.0000
 5109,0.,0.,-0.00013038,0.,0.,-0.00001594,0.,0.,0.00005838,0.,0.,0.0009
 2246,-0.00000058,-0.00000169,0.04987281,-0.00005225,0.00011124,0.,0.00
 011161,0.00009404,0.,0.00000844,0.00004381,0.,0.00020970,0.00017343,0.
 ,0.00104073,0.00024669,0.,-0.00013581,0.00023723,0.,0.00003099,-0.0000
 1680,0.,0.00056666,-0.00000916,0.,0.00009403,0.00004172,0.,-0.00000574
 ,0.00003958,0.,0.00007315,0.00008688,0.,0.00001790,0.00007364,0.,0.000
 28408,-0.00011648,0.,-0.00086736,0.00049655,0.,-0.00086177,-0.00183903
 ,0.00000002,0.00909177,-0.02691576,0.00000005,-0.00393539,0.00131759,-
 0.00000002,0.00000339,0.00002435,0.,0.00005291,0.00004235,0.,0.0000007
 0,0.00002835,0.,-0.00011152,-0.00009289,0.,-0.00000948,0.00001493,0.,-
 0.00004864,0.00002830,0.,0.00107775,-0.00029978,0.,-0.15908999,0.19786
 391,-0.00000029,0.15637508,-0.00011883,0.00001521,0.,-0.00002697,0.000
 13263,0.,0.00014426,0.00006314,0.,0.00044278,-0.00017960,0.,0.00022985
 ,0.00002969,0.,0.00012700,0.00031243,0.,-0.00004304,-0.00005765,0.,0.0
 0147049,-0.00133451,0.,-0.00074050,-0.00025874,0.,0.00017502,-0.000051
 39,0.,0.00006492,0.00011765,0.,0.00001734,0.00000321,0.,0.00020025,-0.
 00001916,0.,-0.00076792,0.00074790,0.,-0.00581579,-0.00218284,0.000000
 05,0.02313750,-0.04036210,0.00000004,0.00514900,-0.00259927,-0.0000000
 2,-0.00000857,0.00000954,0.,0.00002482,0.00001847,0.,-0.00001363,0.000
 01742,0.,-0.00012943,0.00000500,0.,-0.00004386,-0.00005396,0.,0.000010
 65,-0.00003502,0.,0.00010116,0.00008312,0.,0.14706822,-0.27741846,0.00
 000042,-0.16900341,0.31640266,0.,0.,-0.00025334,0.,0.,0.00003370,0.,0.
 ,-0.00021327,0.,0.,0.00083391,0.,0.,0.00008828,0.,0.,0.00029353,0.,0.,
 0.00008191,-0.00000001,0.00000001,0.00033442,0.00000001,0.,-0.00077845
 ,0.,0.,-0.00014929,0.,0.,0.00007730,0.,0.,-0.00003163,0.,0.,0.00012211
 ,0.,-0.00000001,-0.00078247,0.00000005,0.00000001,0.01439083,-0.000000
 11,0.00000014,-0.00094377,0.,-0.00000003,-0.00934754,0.,0.,0.00000708,
 0.,0.,0.00004378,0.,0.,0.00002523,0.,0.,0.00010187,0.,0.,-0.00002731,0
 .,0.,0.00005986,0.,0.,-0.00059143,-0.00000017,0.00000036,-0.02720798,0
 .00000022,-0.00000048,0.02175282,0.00189098,0.00269719,0.,0.00121475,-
 0.00204492,0.,-0.00007718,-0.00080094,0.,-0.00095698,-0.00331406,0.,0.
 02226895,-0.00119148,0.,-0.00815192,-0.00563017,0.,-0.00000813,0.00009
 800,0.,-0.00178738,-0.00037760,0.,0.00031900,-0.00001452,0.,-0.0000765
 1,-0.00030840,0.,-0.00044644,0.00019631,0.,0.00001538,0.00008426,0.,-0
 .00042676,0.00020400,0.,-0.00019511,0.00306546,0.,-0.00808252,-0.00432
 719,0.,-0.03589911,0.03246106,-0.00000002,-0.24209896,0.17340420,-0.00
 000023,0.00006672,-0.00004144,0.,0.00010530,0.00021756,0.,0.00009493,-
 0.00009209,0.,-0.00039988,-0.00336115,0.,0.00002214,0.00007599,0.,-0.0
 0021964,0.00028877,0.,0.00038135,-0.00018508,0.,-0.00001227,0.00760377
 ,-0.00000002,-0.00114059,0.00160994,0.,0.43268989,0.00189811,-0.003413
 57,0.,-0.00056212,-0.00048817,0.,-0.00147040,-0.00211050,0.,-0.0108837
 3,0.00212518,0.,0.00552666,-0.06754367,0.00000003,0.00769233,-0.001591
 89,0.,0.00005693,0.00008393,0.,0.00098584,0.00021597,0.,0.00060085,0.0
 0046727,0.,-0.00033623,-0.00060410,0.,-0.00073363,0.00013454,0.,0.0000
 5788,-0.00004767,0.,0.00044274,0.00098455,0.,0.00100996,-0.00031845,0.
 ,-0.00114691,0.00135959,0.,0.03109598,0.00071327,0.00000005,0.23060391
 ,-0.42490032,0.00000042,0.00007486,-0.00023916,0.,-0.00026906,-0.00012
 944,0.,0.00000841,-0.00012437,0.,-0.00042177,-0.00178906,0.,0.00012154
 ,-0.00003237,0.,0.00004699,0.00002985,0.,0.00025032,-0.00012565,0.,-0.
 00760377,-0.00858535,0.,-0.00593252,0.00585379,0.,-0.05324925,0.777494
 27,0.,0.,-0.00083979,0.,0.,-0.00017280,0.,0.,-0.00016329,0.,0.,0.00273
 151,0.00000001,0.00000002,-0.00579648,0.,0.,0.00182615,0.,0.,0.0001164
 5,0.,0.,-0.00189954,0.,0.,0.00061872,0.,0.,-0.00008091,0.,0.,-0.000200
 87,0.,0.,-0.00005109,0.,0.,0.00051796,0.,0.,-0.00059256,-0.00000001,0.
 ,0.00259672,0.00000001,0.00000004,0.01948755,-0.00000033,0.00000042,-0
 .04134612,0.,0.,-0.00001594,0.,0.,0.00005838,0.,0.,0.00024071,0.,0.,0.
 00092246,0.,0.,-0.00000608,0.,0.,-0.00011647,0.,0.,-0.00013038,0.,0.,0
 .00043974,0.,-0.00000002,-0.00080888,0.00000015,-0.00000070,0.04987281
 ,0.00028408,0.00011648,0.,0.00007315,-0.00008688,0.,0.00009403,-0.0000
 4172,0.,0.00056666,0.00000916,0.,-0.00086177,0.00183903,0.,-0.00086736
 ,-0.00049655,0.,-0.00000574,-0.00003958,0.,0.00020970,-0.00017343,0.,0
 .00000844,-0.00004381,0.,0.00003099,0.00001680,0.,0.00011161,-0.000094
 04,0.,0.00000070,-0.00002835,0.,-0.00005225,-0.00011124,0.,-0.00013581
 ,-0.00023722,0.,0.00104073,-0.00024669,0.,-0.00393539,-0.00131759,0.00
 000003,0.00909177,0.02691576,-0.00000004,-0.00000948,-0.00001493,0.,-0
 .00004864,-0.00002830,0.,0.00001790,-0.00007364,0.,0.00107775,0.000299
 78,0.,0.00000339,-0.00002435,0.,0.00005291,-0.00004235,0.,-0.00011152,
 0.00009289,0.,-0.00114059,0.00593252,-0.00000002,-0.00278038,-0.003261
 24,0.00000002,-0.15908999,-0.19786391,0.00000016,0.15637508,-0.0002002
 5,-0.00001916,0.,-0.00006493,0.00011765,0.,0.00074050,-0.00025874,0.,-
 0.00147049,-0.00133451,0.,0.00581579,-0.00218284,0.00000002,0.00076792
 ,0.00074790,0.,-0.00017502,-0.00005139,0.,-0.00044278,-0.00017960,0.,-
 0.00014426,0.00006314,0.,0.00004304,-0.00005765,0.,0.00002697,0.000132
 63,0.,0.00001363,0.00001742,0.,0.00011883,0.00001521,0.,-0.00012700,0.
 00031243,0.,-0.00022985,0.00002969,0.,-0.00514900,-0.00259927,-0.00000
 001,-0.02313750,-0.04036210,0.00000003,0.00004386,-0.00005396,0.,-0.00
 001065,-0.00003502,0.,-0.00001734,0.00000321,0.,-0.00010116,0.00008312
 ,0.,0.00000857,0.00000954,0.,-0.00002482,0.00001847,0.,0.00012943,0.00
 000500,0.,-0.00160994,0.00585379,0.,0.00326124,0.00074084,0.,-0.147068
 22,-0.27741846,0.00000023,0.16900341,0.31640266,0.,0.,0.00012211,0.,0.
 ,0.00007730,0.,0.,-0.00077845,0.,0.,0.00033442,-0.00000002,0.,0.014390
 83,0.,0.,-0.00078247,0.,0.,-0.00014929,0.,0.,0.00083391,0.,0.,-0.00021
 327,0.,0.,0.00008191,0.,0.,0.00003370,0.,0.,0.00002523,0.,0.,-0.000253
 34,0.,0.,0.00029353,0.,0.,0.00008828,0.,0.,-0.00934754,0.00000004,0.00
 000007,-0.00094377,0.,0.,-0.00002731,0.,0.,0.00005986,0.,0.,-0.0000316
 3,0.,0.,-0.00059143,0.,0.,0.00000708,0.,0.,0.00004378,0.,0.,0.00010187
 ,0.,-0.00000002,-0.00080888,0.,0.00000001,0.00288873,0.00000011,0.0000
 0020,-0.02720798,-0.00000015,-0.00000026,0.02175282||0.00000838,-0.000
 07015,0.00000001,-0.00002379,0.00012708,0.,0.00004665,-0.00027593,0.,0
 .00015515,0.00004953,-0.00000002,-0.00008177,-0.00001612,-0.00000008,0
 .00004359,0.00005926,-0.00000002,-0.00010955,0.00016949,0.,-0.00015515
 ,0.00004953,-0.00000002,-0.00004665,-0.00027594,0.,0.00010956,0.000169
 49,0.,0.00002379,0.00012708,0.,-0.00000517,-0.00001989,0.,-0.00000838,
 -0.00007015,0.00000001,-0.00004359,0.00005926,-0.00000002,0.00008177,-
 0.00001612,-0.00000009,0.00005966,0.00004393,0.00000019,-0.00005966,0.
 00004393,0.00000018,0.00002636,-0.00000617,0.,-0.00000856,-0.00000145,
 0.,0.00000517,-0.00001989,0.,-0.00000347,0.00000778,0.,-0.00002637,-0.
 00000617,0.,0.00000856,-0.00000145,0.,0.00000347,0.00000778,0.,0.00008
 559,-0.00010999,-0.00000004,-0.00005442,0.00004262,-0.00000004,-0.0000
 8559,-0.00010999,-0.00000005,0.00005442,0.00004262,-0.00000005|||@
 The archive entry for this job was punched.


 ART, GLORY, FREEDOM FAIL, BUT NATURE STILL IS FAIR.

                                           -- BYRON
 Job cpu time:       0 days  1 hours 59 minutes 41.0 seconds.
 Elapsed time:       0 days  1 hours 59 minutes 38.1 seconds.
 File lengths (MBytes):  RWF=    567 Int=      0 D2E=      0 Chk=     18 Scr=      1
 Normal termination of Gaussian 16 at Wed Aug 16 09:27:52 2023.
