 Entering Link 1 = C:\G16W\l1.exe PID=      6512.
  
 Copyright (c) 1988-2019, Gaussian, Inc.  All Rights Reserved.
  
 This is part of the Gaussian(R) 16 program.  It is based on
 the Gaussian(R) 09 system (copyright 2009, Gaussian, Inc.),
 the Gaussian(R) 03 system (copyright 2003, Gaussian, Inc.),
 the Gaussian(R) 98 system (copyright 1998, Gaussian, Inc.),
 the Gaussian(R) 94 system (copyright 1995, Gaussian, Inc.),
 the Gaussian 92(TM) system (copyright 1992, Gaussian, Inc.),
 the Gaussian 90(TM) system (copyright 1990, Gaussian, Inc.),
 the Gaussian 88(TM) system (copyright 1988, Gaussian, Inc.),
 the Gaussian 86(TM) system (copyright 1986, Carnegie Mellon
 University), and the Gaussian 82(TM) system (copyright 1983,
 Carnegie Mellon University). Gaussian is a federally registered
 trademark of Gaussian, Inc.
  
 This software contains proprietary and confidential information,
 including trade secrets, belonging to Gaussian, Inc.
  
 This software is provided under written license and may be
 used, copied, transmitted, or stored only in accord with that
 written license.
  
 The following legend is applicable only to US Government
 contracts under FAR:
  
                    RESTRICTED RIGHTS LEGEND
  
 Use, reproduction and disclosure by the US Government is
 subject to restrictions as set forth in subparagraphs (a)
 and (c) of the Commercial Computer Software - Restricted
 Rights clause in FAR 52.227-19.
  
 Gaussian, Inc.
 340 Quinnipiac St., Bldg. 40, Wallingford CT 06492
  
  
 ---------------------------------------------------------------
 Warning -- This program may not be used in any manner that
 competes with the business of Gaussian, Inc. or will provide
 assistance to any competitor of Gaussian, Inc.  The licensee
 of this program is prohibited from giving any competitor of
 Gaussian, Inc. access to this program.  By using this program,
 the user acknowledges that Gaussian, Inc. is engaged in the
 business of creating and licensing software in the field of
 computational chemistry and represents and warrants to the
 licensee that it is not a competitor of Gaussian, Inc. and that
 it will not use this program in any manner prohibited above.
 ---------------------------------------------------------------
  

 Cite this work as:
 Gaussian 16, Revision C.01,
 M. J. Frisch, G. W. Trucks, H. B. Schlegel, G. E. Scuseria, 
 M. A. Robb, J. R. Cheeseman, G. Scalmani, V. Barone, 
 G. A. Petersson, H. Nakatsuji, X. Li, M. Caricato, A. V. Marenich, 
 J. Bloino, B. G. Janesko, R. Gomperts, B. Mennucci, H. P. Hratchian, 
 J. V. Ortiz, A. F. Izmaylov, J. L. Sonnenberg, D. Williams-Young, 
 F. Ding, F. Lipparini, F. Egidi, J. Goings, B. Peng, A. Petrone, 
 T. Henderson, D. Ranasinghe, V. G. Zakrzewski, J. Gao, N. Rega, 
 G. Zheng, W. Liang, M. Hada, M. Ehara, K. Toyota, R. Fukuda, 
 J. Hasegawa, M. Ishida, T. Nakajima, Y. Honda, O. Kitao, H. Nakai, 
 T. Vreven, K. Throssell, J. A. Montgomery, Jr., J. E. Peralta, 
 F. Ogliaro, M. J. Bearpark, J. J. Heyd, E. N. Brothers, K. N. Kudin, 
 V. N. Staroverov, T. A. Keith, R. Kobayashi, J. Normand, 
 K. Raghavachari, A. P. Rendell, J. C. Burant, S. S. Iyengar, 
 J. Tomasi, M. Cossi, J. M. Millam, M. Klene, C. Adamo, R. Cammi, 
 J. W. Ochterski, R. L. Martin, K. Morokuma, O. Farkas, 
 J. B. Foresman, and D. J. Fox, Gaussian, Inc., Wallingford CT, 2019.
 
 ******************************************
 Gaussian 16:  EM64W-G16RevC.01 30-May-2019
                15-Aug-2023 
 ******************************************
 %nprocshared=4
 Will use up to    4 processors via shared memory.
 %mem=4GB
 %chk=C:\Users\jared\Desktop\spectras\4_5-IMINE-PYRENE\ethanol_solvent\SOLVENT_4_
 5-IMINE-PYRENE.chk
 ----------------------------------------------------------------------
 # freq=raman b3lyp/6-311++g(d,p) scrf=(cpcm,solvent=ethanol) geom=conn
 ectivity
 ----------------------------------------------------------------------
 1/10=4,30=1,38=1,57=2/1,3;
 2/12=2,17=6,18=5,40=1/2;
 3/5=4,6=6,7=1111,11=2,25=1,30=1,70=2101,71=2,72=4,74=-5,140=1/1,2,3;
 4//1;
 5/5=2,38=5,53=4,98=1/2;
 8/6=4,10=90,11=11/1;
 10/13=10,15=4/2;
 11/6=3,8=1,9=11,15=111,16=1/1,2,10;
 10/6=1/2;
 6/7=2,8=2,9=2,10=2,28=1/1;
 7/8=1,10=1,25=1/1,2,3,16;
 1/10=4,30=1/3;
 99//99;
 -------------------
 Title Card Required
 -------------------
 Symbolic Z-matrix:
 Charge =  0 Multiplicity = 1
 C                    -3.53675  -0.47657  0. 
 C                    -2.82993  -1.6645   0. 
 C                    -1.41964  -1.66336  0. 
 C                    -0.72205  -0.4225    0. 
 C                    -1.46184   0.78722   0. 
 C                    -2.85328   0.74421   0. 
 C                    -0.67886  -2.89247  0. 
 C                     0.72205  -0.4225    0. 
 C                     1.41964  -1.66336   0. 
 C                     0.67886  -2.89247  0. 
 C                     2.82993  -1.6645    0. 
 H                     3.35342  -2.61444   0. 
 C                     3.53675  -0.47657   0. 
 C                     2.85328   0.74421   0. 
 C                     1.46184   0.78722   0. 
 C                     0.76563   2.09724   0. 
 C                    -0.76563   2.09724   0. 
 H                    -1.22999  -3.82641  0. 
 H                    -4.62041  -0.48646  0. 
 H                    -3.35342  -2.61444  0. 
 H                    -3.40231   1.67642   0. 
 H                     1.22999  -3.82641  0. 
 H                     4.62041  -0.48646   0. 
 H                     3.40231   1.67642   0. 
 N                     1.4628    3.16898  0. 
 H                     0.88681   4.01242  -0.00001 
 N                    -1.4628    3.16898   0. 
 H                    -0.88681   4.01242   0. 
 

 GradGradGradGradGradGradGradGradGradGradGradGradGradGradGradGradGradGrad
 Berny optimization.
 Initialization pass.
 Trust Radius=3.00D-01 FncErr=1.00D-07 GrdErr=1.00D-07 EigMax=2.50D+02 EigMin=1.00D-04
 Number of steps in this run=      2 maximum allowed number of steps=      2.
 GradGradGradGradGradGradGradGradGradGradGradGradGradGradGradGradGradGrad

                          Input orientation:                          
 ---------------------------------------------------------------------
 Center     Atomic      Atomic             Coordinates (Angstroms)
 Number     Number       Type             X           Y           Z
 ---------------------------------------------------------------------
      1          6           0       -3.536749   -0.476573    0.000000
      2          6           0       -2.829931   -1.664498   -0.000001
      3          6           0       -1.419638   -1.663362    0.000000
      4          6           0       -0.722052   -0.422499    0.000000
      5          6           0       -1.461841    0.787222    0.000001
      6          6           0       -2.853281    0.744210    0.000000
      7          6           0       -0.678861   -2.892470   -0.000001
      8          6           0        0.722052   -0.422499    0.000000
      9          6           0        1.419638   -1.663362    0.000000
     10          6           0        0.678861   -2.892470    0.000000
     11          6           0        2.829931   -1.664498    0.000000
     12          1           0        3.353420   -2.614439    0.000000
     13          6           0        3.536749   -0.476573    0.000001
     14          6           0        2.853281    0.744210    0.000001
     15          6           0        1.461841    0.787222    0.000000
     16          6           0        0.765631    2.097239    0.000000
     17          6           0       -0.765631    2.097239    0.000002
     18          1           0       -1.229988   -3.826407   -0.000001
     19          1           0       -4.620414   -0.486463   -0.000001
     20          1           0       -3.353420   -2.614439   -0.000001
     21          1           0       -3.402311    1.676415    0.000000
     22          1           0        1.229988   -3.826407    0.000000
     23          1           0        4.620414   -0.486463    0.000001
     24          1           0        3.402311    1.676415    0.000001
     25          7           0        1.462796    3.168978   -0.000004
     26          1           0        0.886810    4.012423   -0.000005
     27          7           0       -1.462796    3.168978    0.000002
     28          1           0       -0.886810    4.012423    0.000001
 ---------------------------------------------------------------------
                    Distance matrix (angstroms):
                    1          2          3          4          5
     1  C    0.000000
     2  C    1.382302   0.000000
     3  C    2.427061   1.410293   0.000000
     4  C    2.815217   2.446572   1.423505   0.000000
     5  C    2.429490   2.807597   2.450947   1.417996   0.000000
     6  C    1.399085   2.408821   2.802094   2.429680   1.392105
     7  C    3.742203   2.476897   1.435081   2.470349   3.762073
     8  C    4.259144   3.762864   2.475192   1.444104   2.496560
     9  C    5.096493   4.249569   2.839276   2.475192   3.782629
    10  C    4.858799   3.717463   2.431955   2.839597   4.257081
    11  C    6.476556   5.659862   4.249569   3.762864   4.942695
    12  H    7.214216   6.255895   4.866892   4.627535   5.895595
    13  C    7.073498   6.476556   5.096493   4.259144   5.155878
    14  C    6.505597   6.172582   4.904512   3.760879   4.315336
    15  C    5.155878   4.942695   3.782629   2.496560   2.923681
    16  C    5.013480   5.203722   4.349427   2.926137   2.584139
    17  C    3.782011   4.290921   3.817047   2.520115   1.483527
    18  H    4.067252   2.689548   2.171344   3.441597   4.619451
    19  H    1.083709   2.143267   3.410286   3.898886   3.405709
    20  H    2.145713   1.084633   2.155008   3.424719   3.892220
    21  H    2.157181   3.389590   3.883954   3.404296   2.134500
    22  H    5.826077   4.599651   3.420422   3.923908   5.341490
    23  H    8.157169   7.542904   6.153642   5.342848   6.214184
    24  H    7.265392   7.071247   5.865603   4.627722   4.944758
    25  N    6.187527   6.464518   5.626716   4.203840   3.771771
    26  H    6.302298   6.785395   6.126519   4.717729   3.989747
    27  N    4.194201   5.023102   4.832533   3.667071   2.381756
    28  H    5.212797   6.000262   5.700740   4.437981   3.276061
                    6          7          8          9         10
     6  C    0.000000
     7  C    4.237162   0.000000
     8  C    3.760879   2.839597   0.000000
     9  C    4.904512   2.431955   1.423505   0.000000
    10  C    5.069661   1.357721   2.470349   1.435081   0.000000
    11  C    6.172582   3.717463   2.446572   1.410293   2.476897
    12  H    7.057171   4.041855   3.424719   2.155008   2.688972
    13  C    6.505597   4.858799   2.815217   2.427061   3.742203
    14  C    5.706562   5.069661   2.429680   2.802094   4.237162
    15  C    4.315336   4.257081   1.417996   2.450947   3.762073
    16  C    3.863575   5.194589   2.520115   3.817047   4.990463
    17  C    2.487764   4.990463   2.926137   4.349427   5.194589
    18  H    4.850321   1.084426   3.923908   3.420422   2.125075
    19  H    2.153442   4.617868   5.342848   6.153642   5.819895
    20  H    3.395683   2.688972   4.627535   4.866892   4.041855
    21  H    1.081869   5.319012   4.627722   5.865603   6.126228
    22  H    6.128917   2.125075   3.441597   2.171344   1.084426
    23  H    7.574342   5.819895   3.898886   3.410286   4.617868
    24  H    6.324669   6.126228   3.404296   3.883954   5.319012
    25  N    4.950557   6.428674   3.667071   4.832533   6.111932
    26  H    4.966839   7.080174   4.437981   5.700740   6.908023
    27  N    2.795166   6.111932   4.203840   5.626716   6.428674
    28  H    3.814213   6.908023   4.717729   6.126519   7.080174
                   11         12         13         14         15
    11  C    0.000000
    12  H    1.084633   0.000000
    13  C    1.382302   2.145713   0.000000
    14  C    2.408821   3.395683   1.399085   0.000000
    15  C    2.807597   3.892220   2.429490   1.392105   0.000000
    16  C    4.290921   5.375553   3.782011   2.487764   1.483527
    17  C    5.203722   6.258314   5.013480   3.863575   2.584139
    18  H    4.599651   4.740938   5.826077   6.128917   5.341490
    19  H    7.542904   8.252897   8.157169   7.574342   6.214184
    20  H    6.255895   6.706840   7.214216   7.057171   5.895595
    21  H    7.071247   8.003208   7.265392   6.324669   4.944758
    22  H    2.689548   2.444960   4.067252   4.850321   4.619451
    23  H    2.143267   2.476601   1.083709   2.153442   3.405709
    24  H    3.389590   4.291133   2.157181   1.081869   2.134500
    25  N    5.023102   6.084602   4.194201   2.795166   2.381756
    26  H    6.000262   7.071030   5.212797   3.814213   3.276061
    27  N    6.464518   7.526211   6.187527   4.950557   3.771771
    28  H    6.785395   7.867328   6.302298   4.966839   3.989747
                   16         17         18         19         20
    16  C    0.000000
    17  C    1.531261   0.000000
    18  H    6.250766   5.941819   0.000000
    19  H    5.973691   4.640568   4.759224   0.000000
    20  H    6.258314   5.375553   2.444960   2.476601   0.000000
    21  H    4.189133   2.670052   5.916083   2.482300   4.291133
    22  H    5.941819   6.250766   2.459976   6.736648   4.740938
    23  H    4.640568   5.973691   6.736648   9.240827   8.252897
    24  H    2.670052   4.189133   7.193000   8.309161   8.003208
    25  N    1.278540   2.472753   7.495765   7.097019   7.526211
    26  H    1.919013   2.529523   8.119611   7.111222   7.867328
    27  N    2.472753   1.278540   6.999258   4.830404   6.084602
    28  H    2.529523   1.919013   7.846338   5.846346   7.071030
                   21         22         23         24         25
    21  H    0.000000
    22  H    7.193000   0.000000
    23  H    8.309161   4.759224   0.000000
    24  H    6.804622   5.916083   2.482300   0.000000
    25  N    5.088910   6.999258   4.830404   2.447338   0.000000
    26  H    4.884004   7.846338   5.846346   3.432882   1.021351
    27  N    2.447338   7.495765   7.097019   5.088910   2.925591
    28  H    3.432882   8.119611   7.111222   4.884004   2.496406
                   26         27         28
    26  H    0.000000
    27  N    2.496406   0.000000
    28  H    1.773620   1.021351   0.000000
 Stoichiometry    C16H10N2
 Framework group  C1[X(C16H10N2)]
 Deg. of freedom    78
 Full point group                 C1      NOp   1
 Largest Abelian subgroup         C1      NOp   1
 Largest concise Abelian subgroup C1      NOp   1
                         Standard orientation:                         
 ---------------------------------------------------------------------
 Center     Atomic      Atomic             Coordinates (Angstroms)
 Number     Number       Type             X           Y           Z
 ---------------------------------------------------------------------
      1          6           0        3.536749   -0.476573    0.000000
      2          6           0        2.829931   -1.664498    0.000001
      3          6           0        1.419638   -1.663362    0.000000
      4          6           0        0.722052   -0.422499    0.000000
      5          6           0        1.461841    0.787222   -0.000001
      6          6           0        2.853281    0.744210    0.000000
      7          6           0        0.678861   -2.892470    0.000001
      8          6           0       -0.722052   -0.422499    0.000000
      9          6           0       -1.419638   -1.663362    0.000000
     10          6           0       -0.678861   -2.892470    0.000000
     11          6           0       -2.829931   -1.664498    0.000000
     12          1           0       -3.353420   -2.614439    0.000000
     13          6           0       -3.536749   -0.476573   -0.000001
     14          6           0       -2.853281    0.744210   -0.000001
     15          6           0       -1.461841    0.787222    0.000000
     16          6           0       -0.765631    2.097239    0.000000
     17          6           0        0.765631    2.097239   -0.000002
     18          1           0        1.229988   -3.826407    0.000001
     19          1           0        4.620413   -0.486463    0.000001
     20          1           0        3.353420   -2.614439    0.000001
     21          1           0        3.402311    1.676415    0.000000
     22          1           0       -1.229988   -3.826407    0.000000
     23          1           0       -4.620414   -0.486463   -0.000001
     24          1           0       -3.402311    1.676415   -0.000001
     25          7           0       -1.462796    3.168978    0.000004
     26          1           0       -0.886810    4.012423    0.000005
     27          7           0        1.462796    3.168978   -0.000002
     28          1           0        0.886810    4.012423   -0.000001
 ---------------------------------------------------------------------
 Rotational constants (GHZ):           0.6014579           0.5163837           0.2778417
 Standard basis: 6-311++G(d,p) (5D, 7F)
 There are   484 symmetry adapted cartesian basis functions of A   symmetry.
 There are   466 symmetry adapted basis functions of A   symmetry.
   466 basis functions,   738 primitive gaussians,   484 cartesian basis functions
    60 alpha electrons       60 beta electrons
       nuclear repulsion energy      1179.3958999273 Hartrees.
 NAtoms=   28 NActive=   28 NUniq=   28 SFac= 1.00D+00 NAtFMM=   60 NAOKFM=F Big=F
 Integral buffers will be    131072 words long.
 Raffenetti 2 integral format.
 Two-electron integral symmetry is turned on.
 Force inversion solution in PCM.
 ------------------------------------------------------------------------------
 Polarizable Continuum Model (PCM)
 =================================
 Model                : C-PCM.
 Atomic radii         : UFF (Universal Force Field).
 Polarization charges : Total charges.
 Charge compensation  : None.
 Solution method      : Matrix inversion.
 Cavity type          : Scaled VdW (van der Waals Surface) (Alpha=1.100).
 Cavity algorithm     : GePol (No added spheres)
                        Default sphere list used, NSphG=   28.
                        Lebedev-Laikov grids with approx.  5.0 points / Ang**2.
                        Smoothing algorithm: York/Karplus (Gamma=1.0000).
                        Polarization charges: spherical gaussians, with
                                              point-specific exponents (IZeta= 3).
                        Self-potential: point-specific (ISelfS= 7).
                        Self-field    : sphere-specific E.n sum rule (ISelfD= 2).
 1st derivatives      : Analytical E(r).r(x)/FMM algorithm (CHGder, D1EAlg=3).
                        Cavity 1st derivative terms included.
 2nd derivatives      : Analytical E(r).r(xy)/FMM algorithm (CHGder, D2EAlg=3).
                        Cavity 2nd derivative terms included.
 Solvent              : Ethanol, Eps=  24.852000 Eps(inf)=   1.852593
 ------------------------------------------------------------------------------
 One-electron integrals computed using PRISM.
 NBasis=   466 RedAO= T EigKep=  1.13D-06  NBF=   466
 NBsUse=   456 1.00D-06 EigRej=  7.30D-07 NBFU=   456
 ExpMin= 3.60D-02 ExpMax= 6.29D+03 ExpMxC= 9.49D+02 IAcc=3 IRadAn=         5 AccDes= 0.00D+00
 Harris functional with IExCor=  402 and IRadAn=       5 diagonalized for initial guess.
 HarFok:  IExCor=  402 AccDes= 0.00D+00 IRadAn=         5 IDoV= 1 UseB2=F ITyADJ=14
 ICtDFT=  3500011 ScaDFX=  1.000000  1.000000  1.000000  1.000000
 FoFCou: FMM=F IPFlag=           0 FMFlag=      100000 FMFlg1=           0
         NFxFlg=           0 DoJE=T BraDBF=F KetDBF=T FulRan=T
         wScrn=  0.000000 ICntrl=       500 IOpCl=  0 I1Cent=   200000004 NGrid=           0
         NMat0=    1 NMatS0=      1 NMatT0=    0 NMatD0=    1 NMtDS0=    0 NMtDT0=    0
 Petite list used in FoFCou.
 Requested convergence on RMS density matrix=1.00D-08 within 128 cycles.
 Requested convergence on MAX density matrix=1.00D-06.
 Requested convergence on             energy=1.00D-06.
 No special actions if energy rises.
 Inv3:  Mode=1 IEnd=    13764492.
 Iteration    1 A*A^-1 deviation from unit magnitude is 3.77D-15 for   1287.
 Iteration    1 A*A^-1 deviation from orthogonality  is 3.19D-15 for   1882   1008.
 Iteration    1 A^-1*A deviation from unit magnitude is 3.55D-15 for    804.
 Iteration    1 A^-1*A deviation from orthogonality  is 2.15D-15 for   1505   1289.
 Error on total polarization charges =  0.01819
 SCF Done:  E(RB3LYP) =  -725.426134551     A.U. after   14 cycles
            NFock= 14  Conv=0.16D-08     -V/T= 2.0044
 DoSCS=F DFT=T ScalE2(SS,OS)=  1.000000  1.000000
 Range of M.O.s used for correlation:     1   456
 NBasis=   466 NAE=    60 NBE=    60 NFC=     0 NFV=     0
 NROrb=    456 NOA=    60 NOB=    60 NVA=   396 NVB=   396

 **** Warning!!: The largest alpha MO coefficient is  0.11232254D+03

 NEqPCM:  Using equilibrium solvation (IEInf=0, Eps=  24.8520, EpsInf=   1.8526)
          Differentiating once with respect to electric field.
                with respect to dipole field.
          Electric field/nuclear overlap derivatives assumed to be zero.
          There are     3 degrees of freedom in the 1st order CPHF.  IDoFFX=0 NUNeed=     3.
      3 vectors produced by pass  0 Test12= 7.92D-13 3.33D-08 XBig12= 4.91D+02 1.39D+01.
 AX will form     3 AO Fock derivatives at one time.
      3 vectors produced by pass  1 Test12= 7.92D-13 3.33D-08 XBig12= 1.24D+02 2.03D+00.
      3 vectors produced by pass  2 Test12= 7.92D-13 3.33D-08 XBig12= 1.90D+01 1.46D+00.
      3 vectors produced by pass  3 Test12= 7.92D-13 3.33D-08 XBig12= 1.18D+01 9.92D-01.
      3 vectors produced by pass  4 Test12= 7.92D-13 3.33D-08 XBig12= 2.63D+00 8.08D-01.
      3 vectors produced by pass  5 Test12= 7.92D-13 3.33D-08 XBig12= 1.39D+00 3.56D-01.
      3 vectors produced by pass  6 Test12= 7.92D-13 3.33D-08 XBig12= 4.22D-01 2.18D-01.
      3 vectors produced by pass  7 Test12= 7.92D-13 3.33D-08 XBig12= 1.62D-01 9.76D-02.
      3 vectors produced by pass  8 Test12= 7.92D-13 3.33D-08 XBig12= 1.48D-02 3.79D-02.
      3 vectors produced by pass  9 Test12= 7.92D-13 3.33D-08 XBig12= 5.92D-03 2.11D-02.
      3 vectors produced by pass 10 Test12= 7.92D-13 3.33D-08 XBig12= 1.01D-03 9.44D-03.
      3 vectors produced by pass 11 Test12= 7.92D-13 3.33D-08 XBig12= 2.71D-04 2.89D-03.
      3 vectors produced by pass 12 Test12= 7.92D-13 3.33D-08 XBig12= 1.74D-05 1.33D-03.
      3 vectors produced by pass 13 Test12= 7.92D-13 3.33D-08 XBig12= 4.12D-06 5.43D-04.
      2 vectors produced by pass 14 Test12= 7.92D-13 3.33D-08 XBig12= 5.54D-07 2.04D-04.
      2 vectors produced by pass 15 Test12= 7.92D-13 3.33D-08 XBig12= 2.81D-08 3.41D-05.
      2 vectors produced by pass 16 Test12= 7.92D-13 3.33D-08 XBig12= 7.81D-09 1.38D-05.
      2 vectors produced by pass 17 Test12= 7.92D-13 3.33D-08 XBig12= 8.47D-10 3.33D-06.
      2 vectors produced by pass 18 Test12= 7.92D-13 3.33D-08 XBig12= 3.77D-11 1.16D-06.
      2 vectors produced by pass 19 Test12= 7.92D-13 3.33D-08 XBig12= 2.99D-12 2.22D-07.
      1 vectors produced by pass 20 Test12= 7.92D-13 3.33D-08 XBig12= 1.26D-13 5.82D-08.
 InvSVY:  IOpt=1 It=  1 EMax= 3.55D-15
 Solved reduced A of dimension    55 with     3 vectors.
 End of Minotr F.D. properties file   721 does not exist.
 End of Minotr F.D. properties file   722 does not exist.
 End of Minotr F.D. properties file   788 does not exist.
 Symmetrizing basis deriv contribution to polar:
 IMax=3 JMax=2 DiffMx= 0.00D+00
 G2DrvN: will do    29 centers at a time, making    1 passes.
 PxScal for G2LodP:  IOpCl= 0 ISclPx=1 IMOff=     1 NMtTot=     4 NTT=  108811 ScalPx= 3.39D+01
 Calling FoFCou, ICntrl=  3107 FMM=F I1Cent=   0 AccDes= 0.00D+00.
 PxScal for G2LodP:  IOpCl= 0 ISclPx=0 IMOff=     1 NMtTot=     4 NTT=  108811 ScalPx= 1.00D+00
 NEqPCM:  Using equilibrium solvation (IEInf=0, Eps=  24.8520, EpsInf=   1.8526)
 G2PCM: DoFxE=T DoFxN=T DoGrad=T DoDP/DQ/DG/TGxP=TFFF NFrqRd=   0 IEInf=0 SqF1=F DoCFld=F IF1Alg=4.
 End of G2Drv F.D. properties file   721 does not exist.
 End of G2Drv F.D. properties file   722 does not exist.
 End of G2Drv F.D. properties file   788 does not exist.
          IDoAtm=1111111111111111111111111111
 NEqPCM:  Using equilibrium solvation (IEInf=0, Eps=  24.8520, EpsInf=   1.8526)
          Differentiating once with respect to electric field.
                with respect to dipole field.
          Differentiating once with respect to nuclear coordinates.
 CalDSu exits because no D1Ps are significant.
          There are    87 degrees of freedom in the 1st order CPHF.  IDoFFX=5 NUNeed=    87.
 Will reuse    3 saved solutions.
     81 vectors produced by pass  0 Test12= 2.73D-14 1.15D-09 XBig12= 3.18D-01 1.54D-01.
 AX will form    81 AO Fock derivatives at one time.
     81 vectors produced by pass  1 Test12= 2.73D-14 1.15D-09 XBig12= 4.89D-02 5.43D-02.
     81 vectors produced by pass  2 Test12= 2.73D-14 1.15D-09 XBig12= 5.23D-04 4.44D-03.
     81 vectors produced by pass  3 Test12= 2.73D-14 1.15D-09 XBig12= 2.37D-06 1.75D-04.
     81 vectors produced by pass  4 Test12= 2.73D-14 1.15D-09 XBig12= 6.54D-09 8.91D-06.
     81 vectors produced by pass  5 Test12= 2.73D-14 1.15D-09 XBig12= 1.41D-11 4.30D-07.
     45 vectors produced by pass  6 Test12= 2.73D-14 1.15D-09 XBig12= 1.92D-14 1.31D-08.
 InvSVY:  IOpt=1 It=  1 EMax= 1.33D-15
 Solved reduced A of dimension   531 with    87 vectors.
 Isotropic polarizability for W=    0.000000      304.23 Bohr**3.
 End of Minotr F.D. properties file   721 does not exist.
 End of Minotr F.D. properties file   722 does not exist.
 End of Minotr F.D. properties file   788 does not exist.

 **********************************************************************

            Population analysis using the SCF Density.

 **********************************************************************

 Orbital symmetries:
       Occupied  (A) (A) (A) (A) (A) (A) (A) (A) (A) (A) (A) (A)
                 (A) (A) (A) (A) (A) (A) (A) (A) (A) (A) (A) (A)
                 (A) (A) (A) (A) (A) (A) (A) (A) (A) (A) (A) (A)
                 (A) (A) (A) (A) (A) (A) (A) (A) (A) (A) (A) (A)
                 (A) (A) (A) (A) (A) (A) (A) (A) (A) (A) (A) (A)
       Virtual   (A) (A) (A) (A) (A) (A) (A) (A) (A) (A) (A) (A)
                 (A) (A) (A) (A) (A) (A) (A) (A) (A) (A) (A) (A)
                 (A) (A) (A) (A) (A) (A) (A) (A) (A) (A) (A) (A)
                 (A) (A) (A) (A) (A) (A) (A) (A) (A) (A) (A) (A)
                 (A) (A) (A) (A) (A) (A) (A) (A) (A) (A) (A) (A)
                 (A) (A) (A) (A) (A) (A) (A) (A) (A) (A) (A) (A)
                 (A) (A) (A) (A) (A) (A) (A) (A) (A) (A) (A) (A)
                 (A) (A) (A) (A) (A) (A) (A) (A) (A) (A) (A) (A)
                 (A) (A) (A) (A) (A) (A) (A) (A) (A) (A) (A) (A)
                 (A) (A) (A) (A) (A) (A) (A) (A) (A) (A) (A) (A)
                 (A) (A) (A) (A) (A) (A) (A) (A) (A) (A) (A) (A)
                 (A) (A) (A) (A) (A) (A) (A) (A) (A) (A) (A) (A)
                 (A) (A) (A) (A) (A) (A) (A) (A) (A) (A) (A) (A)
                 (A) (A) (A) (A) (A) (A) (A) (A) (A) (A) (A) (A)
                 (A) (A) (A) (A) (A) (A) (A) (A) (A) (A) (A) (A)
                 (A) (A) (A) (A) (A) (A) (A) (A) (A) (A) (A) (A)
                 (A) (A) (A) (A) (A) (A) (A) (A) (A) (A) (A) (A)
                 (A) (A) (A) (A) (A) (A) (A) (A) (A) (A) (A) (A)
                 (A) (A) (A) (A) (A) (A) (A) (A) (A) (A) (A) (A)
                 (A) (A) (A) (A) (A) (A) (A) (A) (A) (A) (A) (A)
                 (A) (A) (A) (A) (A) (A) (A) (A) (A) (A) (A) (A)
                 (A) (A) (A) (A) (A) (A) (A) (A) (A) (A) (A) (A)
                 (A) (A) (A) (A) (A) (A) (A) (A) (A) (A) (A) (A)
                 (A) (A) (A) (A) (A) (A) (A) (A) (A) (A) (A) (A)
                 (A) (A) (A) (A) (A) (A) (A) (A) (A) (A) (A) (A)
                 (A) (A) (A) (A) (A) (A) (A) (A) (A) (A) (A) (A)
                 (A) (A) (A) (A) (A) (A) (A) (A) (A) (A) (A) (A)
                 (A) (A) (A) (A) (A) (A) (A) (A) (A) (A) (A) (A)
                 (A) (A) (A) (A) (A) (A) (A) (A) (A) (A) (A) (A)
                 (A) (A) (A) (A) (A) (A) (A) (A) (A) (A) (A) (A)
                 (A) (A) (A) (A) (A) (A) (A) (A) (A) (A) (A) (A)
                 (A) (A) (A) (A) (A) (A) (A) (A) (A) (A) (A) (A)
                 (A) (A) (A) (A) (A) (A) (A) (A) (A) (A) (A) (A)
 The electronic state is 1-A.
 Alpha  occ. eigenvalues --  -14.32060 -14.32058 -10.24995 -10.24974 -10.20684
 Alpha  occ. eigenvalues --  -10.20646 -10.20226 -10.20225 -10.20182 -10.20181
 Alpha  occ. eigenvalues --  -10.19265 -10.19265 -10.19039 -10.19038 -10.18916
 Alpha  occ. eigenvalues --  -10.18873 -10.18873 -10.18845  -0.95916  -0.91004
 Alpha  occ. eigenvalues --   -0.90390  -0.86640  -0.82960  -0.80624  -0.77723
 Alpha  occ. eigenvalues --   -0.74676  -0.74177  -0.69955  -0.64596  -0.64297
 Alpha  occ. eigenvalues --   -0.63102  -0.60529  -0.56087  -0.55650  -0.53724
 Alpha  occ. eigenvalues --   -0.53415  -0.50480  -0.48877  -0.48336  -0.45399
 Alpha  occ. eigenvalues --   -0.45386  -0.44218  -0.44204  -0.44005  -0.42529
 Alpha  occ. eigenvalues --   -0.40751  -0.39628  -0.38806  -0.38524  -0.38158
 Alpha  occ. eigenvalues --   -0.35492  -0.34660  -0.33474  -0.32752  -0.31062
 Alpha  occ. eigenvalues --   -0.30506  -0.28404  -0.27489  -0.24427  -0.23298
 Alpha virt. eigenvalues --   -0.10930  -0.06879  -0.04550  -0.01130  -0.00748
 Alpha virt. eigenvalues --    0.00073   0.00248   0.00299   0.01637   0.02203
 Alpha virt. eigenvalues --    0.02737   0.03316   0.03847   0.04035   0.04236
 Alpha virt. eigenvalues --    0.05552   0.06299   0.06374   0.06680   0.06797
 Alpha virt. eigenvalues --    0.06927   0.07854   0.09054   0.09316   0.09501
 Alpha virt. eigenvalues --    0.10157   0.10510   0.10676   0.10830   0.11297
 Alpha virt. eigenvalues --    0.11684   0.11851   0.12101   0.12610   0.12786
 Alpha virt. eigenvalues --    0.13046   0.13259   0.13576   0.13618   0.14111
 Alpha virt. eigenvalues --    0.14609   0.14642   0.14886   0.16452   0.17057
 Alpha virt. eigenvalues --    0.17168   0.17336   0.17361   0.17484   0.17871
 Alpha virt. eigenvalues --    0.18158   0.18850   0.19365   0.20112   0.20493
 Alpha virt. eigenvalues --    0.21110   0.21183   0.22033   0.22080   0.22294
 Alpha virt. eigenvalues --    0.22354   0.22821   0.22855   0.23513   0.23705
 Alpha virt. eigenvalues --    0.23915   0.24318   0.24624   0.24669   0.25562
 Alpha virt. eigenvalues --    0.25676   0.26413   0.26568   0.27182   0.27682
 Alpha virt. eigenvalues --    0.27807   0.28443   0.28492   0.28666   0.29316
 Alpha virt. eigenvalues --    0.29398   0.29946   0.30233   0.30869   0.31006
 Alpha virt. eigenvalues --    0.31595   0.31843   0.32274   0.32335   0.33405
 Alpha virt. eigenvalues --    0.33864   0.34630   0.34854   0.35222   0.36295
 Alpha virt. eigenvalues --    0.36690   0.36801   0.38687   0.39218   0.40451
 Alpha virt. eigenvalues --    0.41525   0.41957   0.43572   0.44198   0.45477
 Alpha virt. eigenvalues --    0.47063   0.50299   0.50790   0.51523   0.52169
 Alpha virt. eigenvalues --    0.52868   0.54071   0.54204   0.55108   0.55272
 Alpha virt. eigenvalues --    0.56491   0.57030   0.57803   0.58344   0.58634
 Alpha virt. eigenvalues --    0.59032   0.59423   0.59732   0.59781   0.60144
 Alpha virt. eigenvalues --    0.61308   0.62452   0.63160   0.63421   0.63443
 Alpha virt. eigenvalues --    0.64603   0.64753   0.65137   0.65223   0.65774
 Alpha virt. eigenvalues --    0.67051   0.68100   0.68340   0.70064   0.72338
 Alpha virt. eigenvalues --    0.72483   0.73078   0.73556   0.74183   0.75114
 Alpha virt. eigenvalues --    0.75595   0.75844   0.77074   0.78120   0.78755
 Alpha virt. eigenvalues --    0.80014   0.80772   0.83063   0.83261   0.84095
 Alpha virt. eigenvalues --    0.85040   0.86120   0.86173   0.87371   0.88482
 Alpha virt. eigenvalues --    0.89231   0.89324   0.89809   0.89911   0.90428
 Alpha virt. eigenvalues --    0.90488   0.91893   0.92411   0.93210   0.94018
 Alpha virt. eigenvalues --    0.94076   0.95200   0.95496   0.96186   0.96835
 Alpha virt. eigenvalues --    0.97145   1.00216   1.00470   1.00535   1.00801
 Alpha virt. eigenvalues --    1.01020   1.02791   1.03694   1.04380   1.04500
 Alpha virt. eigenvalues --    1.05677   1.07583   1.08713   1.09564   1.10602
 Alpha virt. eigenvalues --    1.10979   1.11475   1.11648   1.12657   1.14351
 Alpha virt. eigenvalues --    1.14881   1.16282   1.16756   1.23065   1.25676
 Alpha virt. eigenvalues --    1.29477   1.33291   1.33711   1.34592   1.35829
 Alpha virt. eigenvalues --    1.38368   1.40164   1.42748   1.44954   1.45159
 Alpha virt. eigenvalues --    1.45352   1.46665   1.47324   1.48968   1.49199
 Alpha virt. eigenvalues --    1.49247   1.50580   1.50618   1.52178   1.54580
 Alpha virt. eigenvalues --    1.55230   1.56331   1.57308   1.58361   1.58439
 Alpha virt. eigenvalues --    1.61127   1.61353   1.63956   1.64589   1.66036
 Alpha virt. eigenvalues --    1.66878   1.67487   1.70178   1.70422   1.70833
 Alpha virt. eigenvalues --    1.72466   1.73347   1.73997   1.74876   1.75088
 Alpha virt. eigenvalues --    1.78741   1.79259   1.80035   1.85151   1.85683
 Alpha virt. eigenvalues --    1.85927   1.87486   1.88781   1.88925   1.89521
 Alpha virt. eigenvalues --    1.90073   1.90174   1.91284   1.93268   1.94020
 Alpha virt. eigenvalues --    1.94758   1.95162   1.95600   1.96238   1.98160
 Alpha virt. eigenvalues --    2.00048   2.02018   2.02321   2.04643   2.05470
 Alpha virt. eigenvalues --    2.06187   2.06252   2.07149   2.13334   2.14212
 Alpha virt. eigenvalues --    2.14344   2.16330   2.18407   2.19027   2.22341
 Alpha virt. eigenvalues --    2.23828   2.25719   2.27961   2.29368   2.30580
 Alpha virt. eigenvalues --    2.31571   2.33789   2.34687   2.38504   2.40950
 Alpha virt. eigenvalues --    2.41768   2.44674   2.47010   2.47925   2.48595
 Alpha virt. eigenvalues --    2.50518   2.51424   2.56051   2.56161   2.58491
 Alpha virt. eigenvalues --    2.60904   2.61925   2.63914   2.64811   2.66651
 Alpha virt. eigenvalues --    2.70078   2.70638   2.70792   2.71396   2.72137
 Alpha virt. eigenvalues --    2.72398   2.73935   2.74042   2.75458   2.75831
 Alpha virt. eigenvalues --    2.76586   2.77154   2.77784   2.79677   2.80724
 Alpha virt. eigenvalues --    2.81094   2.81269   2.82554   2.82943   2.85150
 Alpha virt. eigenvalues --    2.86140   2.87385   2.88818   2.90235   2.90369
 Alpha virt. eigenvalues --    2.91097   2.91887   2.93031   2.93558   3.01543
 Alpha virt. eigenvalues --    3.04153   3.04548   3.05502   3.07757   3.12486
 Alpha virt. eigenvalues --    3.14653   3.17765   3.19730   3.24476   3.25079
 Alpha virt. eigenvalues --    3.27573   3.30043   3.30814   3.37275   3.38019
 Alpha virt. eigenvalues --    3.39025   3.40921   3.41845   3.43285   3.46192
 Alpha virt. eigenvalues --    3.49677   3.55746   3.56826   3.61882   3.62306
 Alpha virt. eigenvalues --    3.64228   3.70841   3.76526   3.87183   3.89960
 Alpha virt. eigenvalues --    3.91478   3.94917   4.04927   4.05416   4.06820
 Alpha virt. eigenvalues --    4.09866   4.13439   4.16953   4.30929   4.39300
 Alpha virt. eigenvalues --    4.43613   4.48734   4.77804   4.82088   4.82361
 Alpha virt. eigenvalues --    4.85006   4.86344   5.05517  23.46516  23.71557
 Alpha virt. eigenvalues --   23.82810  23.89204  23.91601  23.91995  23.94843
 Alpha virt. eigenvalues --   23.95204  23.97350  24.00611  24.03051  24.06927
 Alpha virt. eigenvalues --   24.08015  24.17113  24.17521  24.20547  35.64256
 Alpha virt. eigenvalues --   35.76609
          Condensed to atoms (all electrons):
               1          2          3          4          5          6
     1  C    7.670777   0.645439  -0.378817  -0.445605  -1.821586   0.450146
     2  C    0.645439   8.378035  -1.157585   0.252400   0.700258  -2.086672
     3  C   -0.378817  -1.157585  10.392651   0.661071   0.020394   1.120106
     4  C   -0.445605   0.252400   0.661071   7.252205   2.995720  -0.534132
     5  C   -1.821586   0.700258   0.020394   2.995720  15.765087  -2.167452
     6  C    0.450146  -2.086672   1.120106  -0.534132  -2.167452   9.217734
     7  C   -0.268010  -0.138708  -0.357304  -0.083610  -0.434012  -0.271732
     8  C   -0.537019   0.190465  -0.343313   0.947854   0.506041  -0.448522
     9  C   -0.084818  -0.458242   1.577299  -0.343313  -0.087983   0.195258
    10  C   -0.192488   0.047588  -1.416285  -0.200132  -0.649630  -0.135685
    11  C   -0.021930   0.088850  -0.458242   0.190465   0.059442  -0.132903
    12  H   -0.001279  -0.001550   0.004626   0.019891   0.007024  -0.000555
    13  C    0.024765  -0.021930  -0.084818  -0.537019  -0.030189   0.064767
    14  C    0.064767  -0.132903   0.195258  -0.448522  -0.156452   0.327722
    15  C   -0.030189   0.059442  -0.087983   0.506041  -0.251105  -0.156451
    16  C    0.197505  -0.169678  -1.809288  -2.150877  -5.797228   0.352276
    17  C    0.670122  -0.303512  -2.184017  -1.679482  -2.684779  -0.236003
    18  H    0.035358   0.004924  -0.022351   0.009513  -0.011974   0.017507
    19  H    0.482686  -0.064195   0.017333  -0.017957  -0.064420  -0.076760
    20  H   -0.086938   0.465656  -0.099099   0.012844  -0.001702  -0.023056
    21  H   -0.203782  -0.006945   0.025416   0.058037   0.183842   0.428954
    22  H    0.000116  -0.002055  -0.015340  -0.030437  -0.015169   0.001854
    23  H    0.000346   0.000341   0.005516  -0.014634   0.002859   0.000508
    24  H   -0.002961  -0.000968   0.010232   0.025788   0.004327  -0.005969
    25  N    0.010771   0.001148   0.000164  -0.060525   0.003989   0.035182
    26  H    0.001918   0.000625  -0.004239  -0.003973  -0.017289   0.000035
    27  N    0.101236  -0.003550  -0.026580  -0.180770  -1.078984   0.233753
    28  H   -0.002226   0.002076  -0.001967   0.020906   0.143326  -0.014941
               7          8          9         10         11         12
     1  C   -0.268010  -0.537019  -0.084818  -0.192488  -0.021930  -0.001279
     2  C   -0.138708   0.190465  -0.458242   0.047588   0.088850  -0.001550
     3  C   -0.357304  -0.343313   1.577299  -1.416285  -0.458242   0.004626
     4  C   -0.083610   0.947854  -0.343313  -0.200132   0.190465   0.019891
     5  C   -0.434012   0.506041  -0.087983  -0.649630   0.059442   0.007024
     6  C   -0.271732  -0.448522   0.195258  -0.135685  -0.132903  -0.000555
     7  C    8.311471  -0.200132  -1.416285   1.986621   0.047588   0.035670
     8  C   -0.200132   7.252205   0.661071  -0.083610   0.252400   0.012844
     9  C   -1.416285   0.661071  10.392651  -0.357304  -1.157585  -0.099099
    10  C    1.986621  -0.083610  -0.357304   8.311471  -0.138708   0.058695
    11  C    0.047588   0.252400  -1.157585  -0.138708   8.378035   0.465656
    12  H    0.035670   0.012844  -0.099099   0.058695   0.465656   0.498213
    13  C   -0.192488  -0.445605  -0.378817  -0.268010   0.645439  -0.086938
    14  C   -0.135685  -0.534132   1.120106  -0.271732  -2.086671  -0.023056
    15  C   -0.649630   2.995720   0.020395  -0.434012   0.700258  -0.001702
    16  C   -0.123083  -1.679483  -2.184017  -0.109168  -0.303512  -0.027813
    17  C   -0.109168  -2.150877  -1.809288  -0.123083  -0.169678  -0.007260
    18  H    0.408468  -0.030437  -0.015340  -0.050643  -0.002055   0.000280
    19  H   -0.000617  -0.014634   0.005516  -0.004393   0.000341  -0.000008
    20  H    0.058695   0.019891   0.004626   0.035670  -0.001550   0.000120
    21  H   -0.009941   0.025788   0.010232   0.000142  -0.000968   0.000043
    22  H   -0.050643   0.009513  -0.022351   0.408468   0.004924   0.001668
    23  H   -0.004393  -0.017957   0.017333  -0.000617  -0.064195  -0.016912
    24  H    0.000142   0.058037   0.025416  -0.009941  -0.006945   0.003246
    25  N   -0.004847  -0.180770  -0.026580  -0.002315  -0.003550  -0.000029
    26  H   -0.000081   0.020906  -0.001967   0.000006   0.002076   0.000040
    27  N   -0.002315  -0.060525   0.000164  -0.004847   0.001148  -0.000014
    28  H    0.000006  -0.003973  -0.004239  -0.000081   0.000625  -0.000014
              13         14         15         16         17         18
     1  C    0.024765   0.064767  -0.030189   0.197505   0.670122   0.035358
     2  C   -0.021930  -0.132903   0.059442  -0.169678  -0.303512   0.004924
     3  C   -0.084818   0.195258  -0.087983  -1.809288  -2.184017  -0.022351
     4  C   -0.537019  -0.448522   0.506041  -2.150877  -1.679482   0.009513
     5  C   -0.030189  -0.156452  -0.251105  -5.797228  -2.684779  -0.011974
     6  C    0.064767   0.327722  -0.156451   0.352276  -0.236003   0.017507
     7  C   -0.192488  -0.135685  -0.649630  -0.123083  -0.109168   0.408468
     8  C   -0.445605  -0.534132   2.995720  -1.679483  -2.150877  -0.030437
     9  C   -0.378817   1.120106   0.020395  -2.184017  -1.809288  -0.015340
    10  C   -0.268010  -0.271732  -0.434012  -0.109168  -0.123083  -0.050643
    11  C    0.645439  -2.086671   0.700258  -0.303512  -0.169678  -0.002055
    12  H   -0.086938  -0.023056  -0.001702  -0.027813  -0.007260   0.000280
    13  C    7.670777   0.450146  -1.821586   0.670122   0.197505   0.000116
    14  C    0.450146   9.217734  -2.167452  -0.236003   0.352276   0.001854
    15  C   -1.821586  -2.167452  15.765088  -2.684779  -5.797228  -0.015169
    16  C    0.670122  -0.236003  -2.684779  18.888643   3.007710  -0.001908
    17  C    0.197505   0.352276  -5.797228   3.007710  18.888643   0.003934
    18  H    0.000116   0.001854  -0.015169  -0.001908   0.003934   0.500023
    19  H    0.000346   0.000508   0.002859   0.011397   0.034889   0.001211
    20  H   -0.001279  -0.000555   0.007024  -0.007260  -0.027813   0.001668
    21  H   -0.002961  -0.005969   0.004327  -0.058175  -0.107448  -0.000239
    22  H    0.035358   0.017507  -0.011974   0.003934  -0.001908  -0.009324
    23  H    0.482686  -0.076760  -0.064420   0.034889   0.011397  -0.000179
    24  H   -0.203782   0.428954   0.183842  -0.107448  -0.058175  -0.000009
    25  N    0.101236   0.233753  -1.078984   0.676068   0.465402  -0.000046
    26  H   -0.002226  -0.014941   0.143326   0.019387  -0.177902  -0.000005
    27  N    0.010771   0.035182   0.003989   0.465402   0.676068   0.000027
    28  H    0.001918   0.000035  -0.017289  -0.177902   0.019387  -0.000008
              19         20         21         22         23         24
     1  C    0.482686  -0.086938  -0.203782   0.000116   0.000346  -0.002961
     2  C   -0.064195   0.465656  -0.006945  -0.002055   0.000341  -0.000968
     3  C    0.017333  -0.099099   0.025416  -0.015340   0.005516   0.010232
     4  C   -0.017957   0.012844   0.058037  -0.030437  -0.014634   0.025788
     5  C   -0.064420  -0.001702   0.183842  -0.015169   0.002859   0.004327
     6  C   -0.076760  -0.023056   0.428954   0.001854   0.000508  -0.005969
     7  C   -0.000617   0.058695  -0.009941  -0.050643  -0.004393   0.000142
     8  C   -0.014634   0.019891   0.025788   0.009513  -0.017957   0.058037
     9  C    0.005516   0.004626   0.010232  -0.022351   0.017333   0.025416
    10  C   -0.004393   0.035670   0.000142   0.408468  -0.000617  -0.009941
    11  C    0.000341  -0.001550  -0.000968   0.004924  -0.064195  -0.006945
    12  H   -0.000008   0.000120   0.000043   0.001668  -0.016912   0.003246
    13  C    0.000346  -0.001279  -0.002961   0.035358   0.482686  -0.203782
    14  C    0.000508  -0.000555  -0.005969   0.017507  -0.076760   0.428954
    15  C    0.002859   0.007024   0.004327  -0.011974  -0.064420   0.183842
    16  C    0.011397  -0.007260  -0.058175   0.003934   0.034889  -0.107448
    17  C    0.034889  -0.027813  -0.107448  -0.001908   0.011397  -0.058175
    18  H    0.001211   0.001668  -0.000239  -0.009324  -0.000179  -0.000009
    19  H    0.507099  -0.016912  -0.018144  -0.000179   0.000008  -0.000024
    20  H   -0.016912   0.498213   0.003246   0.000280  -0.000008   0.000043
    21  H   -0.018144   0.003246   0.493632  -0.000009  -0.000024   0.000442
    22  H   -0.000179   0.000280  -0.000009   0.500023   0.001211  -0.000239
    23  H    0.000008  -0.000008  -0.000024   0.001211   0.507099  -0.018144
    24  H   -0.000024   0.000043   0.000442  -0.000239  -0.018144   0.493632
    25  N    0.000116  -0.000014  -0.001854   0.000027   0.001525  -0.018389
    26  H    0.000006  -0.000014  -0.000314  -0.000008  -0.000403   0.004190
    27  N    0.001525  -0.000029  -0.018389  -0.000046   0.000116  -0.001854
    28  H   -0.000403   0.000040   0.004190  -0.000005   0.000006  -0.000314
              25         26         27         28
     1  C    0.010771   0.001918   0.101236  -0.002226
     2  C    0.001148   0.000625  -0.003550   0.002076
     3  C    0.000164  -0.004239  -0.026580  -0.001967
     4  C   -0.060525  -0.003973  -0.180770   0.020906
     5  C    0.003989  -0.017289  -1.078984   0.143326
     6  C    0.035182   0.000035   0.233753  -0.014941
     7  C   -0.004847  -0.000081  -0.002315   0.000006
     8  C   -0.180770   0.020906  -0.060525  -0.003973
     9  C   -0.026580  -0.001967   0.000164  -0.004239
    10  C   -0.002315   0.000006  -0.004847  -0.000081
    11  C   -0.003550   0.002076   0.001148   0.000625
    12  H   -0.000029   0.000040  -0.000014  -0.000014
    13  C    0.101236  -0.002226   0.010771   0.001918
    14  C    0.233753  -0.014941   0.035182   0.000035
    15  C   -1.078984   0.143326   0.003989  -0.017289
    16  C    0.676068   0.019387   0.465402  -0.177902
    17  C    0.465402  -0.177902   0.676068   0.019387
    18  H   -0.000046  -0.000005   0.000027  -0.000008
    19  H    0.000116   0.000006   0.001525  -0.000403
    20  H   -0.000014  -0.000014  -0.000029   0.000040
    21  H   -0.001854  -0.000314  -0.018389   0.004190
    22  H    0.000027  -0.000008  -0.000046  -0.000005
    23  H    0.001525  -0.000403   0.000116   0.000006
    24  H   -0.018389   0.004190  -0.001854  -0.000314
    25  N    6.902702   0.241713  -0.032726  -0.021559
    26  H    0.241713   0.522213  -0.021559   0.044903
    27  N   -0.032726  -0.021559   6.902702   0.241713
    28  H   -0.021559   0.044903   0.241713   0.522213
 Mulliken charges:
               1
     1  C   -0.278303
     2  C   -0.288754
     3  C    0.417161
     4  C   -0.221748
     5  C    0.877645
     6  C   -0.154968
     7  C   -0.395979
     8  C   -0.221748
     9  C    0.417161
    10  C   -0.395979
    11  C   -0.288754
    12  H    0.158214
    13  C   -0.278303
    14  C   -0.154968
    15  C    0.877645
    16  C   -0.699713
    17  C   -0.699713
    18  H    0.174803
    19  H    0.212805
    20  H    0.158214
    21  H    0.196869
    22  H    0.174803
    23  H    0.212805
    24  H    0.196869
    25  N   -0.241608
    26  H    0.243576
    27  N   -0.241608
    28  H    0.243576
 Sum of Mulliken charges =   0.00000
 Mulliken charges with hydrogens summed into heavy atoms:
               1
     1  C   -0.065497
     2  C   -0.130540
     3  C    0.417161
     4  C   -0.221748
     5  C    0.877645
     6  C    0.041901
     7  C   -0.221176
     8  C   -0.221748
     9  C    0.417161
    10  C   -0.221176
    11  C   -0.130540
    13  C   -0.065497
    14  C    0.041901
    15  C    0.877645
    16  C   -0.699713
    17  C   -0.699713
    25  N    0.001968
    27  N    0.001968
 APT charges:
               1
     1  C   -0.109819
     2  C    0.037883
     3  C   -0.035479
     4  C    0.110983
     5  C   -0.256769
     6  C   -0.055123
     7  C   -0.032533
     8  C    0.110983
     9  C   -0.035479
    10  C   -0.032533
    11  C    0.037883
    12  H    0.045939
    13  C   -0.109819
    14  C   -0.055123
    15  C   -0.256769
    16  C    0.737050
    17  C    0.737050
    18  H    0.038788
    19  H    0.042498
    20  H    0.045939
    21  H    0.098277
    22  H    0.038788
    23  H    0.042498
    24  H    0.098277
    25  N   -0.844692
    26  H    0.222996
    27  N   -0.844692
    28  H    0.222996
 Sum of APT charges =   0.00000
 APT charges with hydrogens summed into heavy atoms:
               1
     1  C   -0.067321
     2  C    0.083823
     3  C   -0.035479
     4  C    0.110983
     5  C   -0.256769
     6  C    0.043155
     7  C    0.006255
     8  C    0.110983
     9  C   -0.035479
    10  C    0.006255
    11  C    0.083823
    13  C   -0.067321
    14  C    0.043155
    15  C   -0.256769
    16  C    0.737050
    17  C    0.737050
    25  N   -0.621696
    27  N   -0.621696
 Electronic spatial extent (au):  <R**2>=           3777.0225
 Charge=              0.0000 electrons
 Dipole moment (field-independent basis, Debye):
    X=              0.0000    Y=             -3.2827    Z=              0.0000  Tot=              3.2827
 Quadrupole moment (field-independent basis, Debye-Ang):
   XX=            -94.4856   YY=            -92.6978   ZZ=           -109.7264
   XY=              0.0000   XZ=              0.0000   YZ=              0.0000
 Traceless Quadrupole moment (field-independent basis, Debye-Ang):
   XX=              4.4843   YY=              6.2721   ZZ=            -10.7565
   XY=              0.0000   XZ=              0.0000   YZ=              0.0000
 Octapole moment (field-independent basis, Debye-Ang**2):
  XXX=              0.0000  YYY=            -13.7360  ZZZ=              0.0000  XYY=              0.0000
  XXY=            -48.7686  XXZ=              0.0000  XZZ=              0.0000  YZZ=              7.5488
  YYZ=              0.0000  XYZ=              0.0000
 Hexadecapole moment (field-independent basis, Debye-Ang**3):
 XXXX=          -2449.7745 YYYY=          -2051.7049 ZZZZ=           -127.1353 XXXY=              0.0000
 XXXZ=              0.0002 YYYX=              0.0000 YYYZ=              0.0001 ZZZX=              0.0000
 ZZZY=              0.0000 XXYY=           -894.4981 XXZZ=           -540.9680 YYZZ=           -448.8885
 XXYZ=             -0.0001 YYXZ=              0.0002 ZZXY=              0.0000
 N-N= 1.179395899927D+03 E-N=-4.043667892485D+03  KE= 7.222493601612D+02
  Exact polarizability:     405.959       0.000     375.476       0.000       0.000     131.249
 Approx polarizability:     471.017       0.000     447.817       0.000       0.000     154.447
 D2PCM: C-PCM CHGder 2nd derivatives, FixD1E=F FixD2E=F DoIter=F DoCFld=F I1PDM=0
 Calling FoFJK, ICntrl=    100127 FMM=F ISym2X=0 I1Cent= 0 IOpClX= 0 NMat=1 NMatS=1 NMatT=0.
 Full mass-weighted force constant matrix:
 Low frequencies ---  -74.5330  -13.0850   -9.5682   -8.4597   -0.0008   -0.0006
 Low frequencies ---    0.0010   57.5461  150.4944
 ******    1 imaginary frequencies (negative Signs) ****** 
 Diagonal vibrational polarizability:
        6.4146591      27.8185663      41.7533584
 Diagonal vibrational hyperpolarizability:
        0.0000008    -513.0334475      -0.0015540
 Harmonic frequencies (cm**-1), IR intensities (KM/Mole), Raman scattering
 activities (A**4/AMU), depolarization ratios for plane and unpolarized
 incident light, reduced masses (AMU), force constants (mDyne/A),
 and normal coordinates:
                      1                      2                      3
                      A                      A                      A
 Frequencies --    -74.5304                57.4298               150.4859
 Red. masses --      6.0516                 4.7912                 4.1817
 Frc consts  --      0.0198                 0.0093                 0.0558
 IR Inten    --      0.0000                 1.5872                 0.0000
 Raman Activ --      0.0521                 0.3961                 0.4044
 Depolar (P) --      0.7500                 0.7500                 0.7500
 Depolar (U) --      0.8571                 0.8571                 0.8571
  Atom  AN      X      Y      Z        X      Y      Z        X      Y      Z
     1   6     0.00   0.00   0.09     0.00   0.00   0.22     0.00   0.00   0.03
     2   6     0.00   0.00   0.07     0.00   0.00   0.05     0.00   0.00  -0.21
     3   6     0.00   0.00   0.03     0.00   0.00  -0.07     0.00   0.00  -0.15
     4   6     0.00   0.00   0.02     0.00   0.00  -0.04     0.00   0.00  -0.01
     5   6     0.00   0.00   0.01     0.00   0.00   0.05     0.00   0.00   0.11
     6   6     0.00   0.00   0.05     0.00   0.00   0.20     0.00   0.00   0.22
     7   6     0.00   0.00   0.02     0.00   0.00  -0.19     0.00   0.00  -0.12
     8   6     0.00   0.00  -0.02     0.00   0.00  -0.04     0.00   0.00   0.01
     9   6     0.00   0.00  -0.03     0.00   0.00  -0.07     0.00   0.00   0.15
    10   6     0.00   0.00  -0.02     0.00   0.00  -0.19     0.00   0.00   0.12
    11   6     0.00   0.00  -0.07     0.00   0.00   0.05     0.00   0.00   0.21
    12   1     0.00   0.00  -0.08     0.00   0.00   0.04     0.00   0.00   0.37
    13   6     0.00   0.00  -0.09     0.00   0.00   0.22     0.00   0.00  -0.03
    14   6     0.00   0.00  -0.05     0.00   0.00   0.20     0.00   0.00  -0.22
    15   6     0.00   0.00  -0.01     0.00   0.00   0.05     0.00   0.00  -0.11
    16   6     0.00   0.00   0.11     0.00   0.00  -0.05     0.00   0.00  -0.04
    17   6     0.00   0.00  -0.11     0.00   0.00  -0.05     0.00   0.00   0.04
    18   1     0.00   0.00   0.03     0.00   0.00  -0.26     0.00   0.00  -0.22
    19   1     0.00   0.00   0.12     0.00   0.00   0.34     0.00   0.00   0.06
    20   1     0.00   0.00   0.08     0.00   0.00   0.04     0.00   0.00  -0.37
    21   1     0.00   0.00   0.06     0.00   0.00   0.31     0.00   0.00   0.39
    22   1     0.00   0.00  -0.03     0.00   0.00  -0.26     0.00   0.00   0.22
    23   1     0.00   0.00  -0.12     0.00   0.00   0.34     0.00   0.00  -0.06
    24   1     0.00   0.00  -0.06     0.00   0.00   0.31     0.00   0.00  -0.39
    25   7     0.00   0.00   0.41     0.00   0.00  -0.16     0.00   0.00   0.01
    26   1     0.00   0.00   0.52     0.00   0.00  -0.23     0.00   0.00   0.11
    27   7     0.00   0.00  -0.41     0.00   0.00  -0.16     0.00   0.00  -0.01
    28   1     0.00   0.00  -0.52     0.00   0.00  -0.23     0.00   0.00  -0.11
                      4                      5                      6
                      A                      A                      A
 Frequencies --    155.5253               224.7405               267.9581
 Red. masses --      5.0175                 3.6243                 4.5353
 Frc consts  --      0.0715                 0.1079                 0.1919
 IR Inten    --      3.1757                 6.3990                 0.0000
 Raman Activ --      0.1388                 1.2038                 1.7317
 Depolar (P) --      0.7500                 0.7500                 0.7500
 Depolar (U) --      0.8571                 0.8571                 0.8571
  Atom  AN      X      Y      Z        X      Y      Z        X      Y      Z
     1   6     0.00   0.00  -0.15     0.00   0.00   0.00     0.00   0.00  -0.19
     2   6     0.00   0.00  -0.16     0.00   0.00  -0.16     0.00   0.00  -0.03
     3   6     0.00   0.00   0.05     0.00   0.00  -0.10     0.00   0.00   0.18
     4   6     0.00   0.00   0.22     0.00   0.00  -0.14     0.00   0.00   0.14
     5   6     0.00   0.00   0.20     0.00   0.00   0.00     0.00   0.00   0.21
     6   6     0.00   0.00   0.06     0.00   0.00   0.16     0.00   0.00   0.06
     7   6     0.00   0.00  -0.02     0.00   0.00   0.19     0.00   0.00   0.13
     8   6     0.00   0.00   0.22     0.00   0.00  -0.14     0.00   0.00  -0.14
     9   6     0.00   0.00   0.05     0.00   0.00  -0.10     0.00   0.00  -0.18
    10   6     0.00   0.00  -0.02     0.00   0.00   0.19     0.00   0.00  -0.13
    11   6     0.00   0.00  -0.16     0.00   0.00  -0.16     0.00   0.00   0.03
    12   1     0.00   0.00  -0.35     0.00   0.00  -0.23     0.00   0.00   0.16
    13   6     0.00   0.00  -0.15     0.00   0.00   0.00     0.00   0.00   0.19
    14   6     0.00   0.00   0.06     0.00   0.00   0.16     0.00   0.00  -0.06
    15   6     0.00   0.00   0.20     0.00   0.00   0.00     0.00   0.00  -0.21
    16   6     0.00   0.00   0.08     0.00   0.00   0.01     0.00   0.00  -0.08
    17   6     0.00   0.00   0.08     0.00   0.00   0.01     0.00   0.00   0.08
    18   1     0.00   0.00  -0.12     0.00   0.00   0.44     0.00   0.00   0.21
    19   1     0.00   0.00  -0.32     0.00   0.00   0.04     0.00   0.00  -0.47
    20   1     0.00   0.00  -0.35     0.00   0.00  -0.23     0.00   0.00  -0.16
    21   1     0.00   0.00   0.03     0.00   0.00   0.37     0.00   0.00   0.02
    22   1     0.00   0.00  -0.12     0.00   0.00   0.44     0.00   0.00  -0.21
    23   1     0.00   0.00  -0.32     0.00   0.00   0.04     0.00   0.00   0.47
    24   1     0.00   0.00   0.03     0.00   0.00   0.37     0.00   0.00  -0.02
    25   7     0.00   0.00  -0.17     0.00   0.00  -0.01     0.00   0.00   0.01
    26   1     0.00   0.00  -0.29     0.00   0.00   0.01     0.00   0.00   0.23
    27   7     0.00   0.00  -0.17     0.00   0.00  -0.01     0.00   0.00  -0.01
    28   1     0.00   0.00  -0.29     0.00   0.00   0.01     0.00   0.00  -0.23
                      7                      8                      9
                      A                      A                      A
 Frequencies --    329.6902               347.5450               388.6297
 Red. masses --      5.2738                 4.8200                 8.0734
 Frc consts  --      0.3377                 0.3430                 0.7184
 IR Inten    --      0.0017                 5.9632                 0.2534
 Raman Activ --      4.5031                 1.4455                40.2616
 Depolar (P) --      0.7500                 0.0891                 0.7290
 Depolar (U) --      0.8571                 0.1636                 0.8432
  Atom  AN      X      Y      Z        X      Y      Z        X      Y      Z
     1   6    -0.04   0.14   0.00     0.00   0.22   0.00     0.26  -0.01   0.00
     2   6    -0.02   0.13   0.00     0.11   0.13   0.00     0.15   0.05   0.00
     3   6    -0.02   0.05   0.00     0.08  -0.06   0.00     0.12   0.12   0.00
     4   6    -0.10  -0.01   0.00     0.00  -0.11   0.00     0.05   0.06   0.00
     5   6    -0.10  -0.04   0.00    -0.09  -0.07   0.00     0.19  -0.05   0.00
     6   6    -0.11   0.07   0.00    -0.11   0.13   0.00     0.24  -0.02   0.00
     7   6     0.05   0.02   0.00     0.02  -0.04   0.00     0.01   0.20   0.00
     8   6    -0.10   0.01   0.00     0.00  -0.11   0.00    -0.05   0.06   0.00
     9   6    -0.02  -0.05   0.00    -0.08  -0.06   0.00    -0.12   0.12   0.00
    10   6     0.05  -0.02   0.00    -0.02  -0.04   0.00    -0.01   0.20   0.00
    11   6    -0.02  -0.13   0.00    -0.11   0.13   0.00    -0.15   0.05   0.00
    12   1     0.02  -0.14   0.00    -0.24   0.21   0.00    -0.06  -0.01   0.00
    13   6    -0.04  -0.14   0.00     0.00   0.22   0.00    -0.26  -0.01   0.00
    14   6    -0.11  -0.07   0.00     0.11   0.13   0.00    -0.24  -0.02   0.00
    15   6    -0.10   0.04   0.00     0.09  -0.07   0.00    -0.19  -0.05   0.00
    16   6     0.02   0.06   0.00     0.05  -0.10   0.00    -0.03  -0.18   0.00
    17   6     0.02  -0.06   0.00    -0.05  -0.10   0.00     0.03  -0.18   0.00
    18   1     0.08   0.03   0.00    -0.03  -0.07   0.00    -0.07   0.15   0.00
    19   1    -0.04   0.18   0.00     0.01   0.32   0.00     0.26  -0.06   0.00
    20   1     0.02   0.14   0.00     0.24   0.21   0.00     0.06  -0.01   0.00
    21   1    -0.21   0.13   0.00    -0.25   0.21   0.00     0.20   0.00   0.00
    22   1     0.08  -0.03   0.00     0.03  -0.07   0.00     0.07   0.15   0.00
    23   1    -0.04  -0.18   0.00    -0.01   0.32   0.00    -0.26  -0.06   0.00
    24   1    -0.21  -0.13   0.00     0.25   0.21   0.00    -0.20   0.00   0.00
    25   7     0.24   0.19   0.00     0.02  -0.12   0.00     0.06  -0.14   0.00
    26   1     0.44   0.05   0.00     0.00  -0.11   0.00     0.10  -0.17   0.00
    27   7     0.24  -0.19   0.00    -0.02  -0.12   0.00    -0.06  -0.14   0.00
    28   1     0.44  -0.05   0.00     0.00  -0.11   0.00    -0.10  -0.17   0.00
                     10                     11                     12
                      A                      A                      A
 Frequencies --    399.6778               401.5957               413.4282
 Red. masses --      8.7225                 6.5041                 3.4464
 Frc consts  --      0.8209                 0.6180                 0.3471
 IR Inten    --      0.3565                23.9288                 0.0000
 Raman Activ --      5.0997                 7.5791                 4.8166
 Depolar (P) --      0.7500                 0.7500                 0.7500
 Depolar (U) --      0.8571                 0.8571                 0.8571
  Atom  AN      X      Y      Z        X      Y      Z        X      Y      Z
     1   6     0.04  -0.04   0.00     0.00   0.00  -0.07     0.00   0.00   0.01
     2   6     0.16  -0.12   0.00     0.00   0.00   0.15     0.00   0.00  -0.12
     3   6     0.15  -0.16   0.00     0.00   0.00  -0.11     0.00   0.00   0.08
     4   6     0.07  -0.14   0.00     0.00   0.00  -0.19     0.00   0.00  -0.07
     5   6    -0.07  -0.15   0.00     0.00   0.00   0.10     0.00   0.00  -0.16
     6   6    -0.07  -0.09   0.00     0.00   0.00  -0.09     0.00   0.00   0.11
     7   6     0.10  -0.12   0.00     0.00   0.00   0.01     0.00   0.00   0.20
     8   6     0.07   0.14   0.00     0.00   0.00  -0.19     0.00   0.00   0.07
     9   6     0.15   0.16   0.00     0.00   0.00  -0.11     0.00   0.00  -0.08
    10   6     0.10   0.12   0.00     0.00   0.00   0.01     0.00   0.00  -0.20
    11   6     0.16   0.12   0.00     0.00   0.00   0.15     0.00   0.00   0.12
    12   1     0.22   0.09   0.00     0.00   0.00   0.44     0.00   0.00   0.25
    13   6     0.04   0.04   0.00     0.00   0.00  -0.07     0.00   0.00  -0.01
    14   6    -0.07   0.09   0.00     0.00   0.00  -0.09     0.00   0.00  -0.11
    15   6    -0.07   0.15   0.00     0.00   0.00   0.10     0.00   0.00   0.16
    16   6    -0.22   0.17   0.00     0.00   0.00   0.36     0.00   0.00   0.10
    17   6    -0.22  -0.17   0.00     0.00   0.00   0.36     0.00   0.00  -0.10
    18   1    -0.03  -0.19   0.00     0.00   0.00   0.19     0.00   0.00   0.37
    19   1     0.04   0.08   0.00     0.00   0.00  -0.07     0.00   0.00   0.04
    20   1     0.22  -0.09   0.00     0.00   0.00   0.44     0.00   0.00  -0.25
    21   1    -0.11  -0.06   0.00     0.00   0.00  -0.09     0.00   0.00   0.33
    22   1    -0.03   0.19   0.00     0.00   0.00   0.19     0.00   0.00  -0.37
    23   1     0.04  -0.08   0.00     0.00   0.00  -0.07     0.00   0.00  -0.04
    24   1    -0.11   0.06   0.00     0.00   0.00  -0.09     0.00   0.00  -0.33
    25   7    -0.13   0.26   0.00     0.00   0.00  -0.15     0.00   0.00   0.00
    26   1    -0.06   0.21   0.00     0.00   0.00  -0.10     0.00   0.00  -0.29
    27   7    -0.13  -0.26   0.00     0.00   0.00  -0.15     0.00   0.00   0.00
    28   1    -0.06  -0.21   0.00     0.00   0.00  -0.10     0.00   0.00   0.29
                     13                     14                     15
                      A                      A                      A
 Frequencies --    465.2938               491.8202               493.3028
 Red. masses --      5.3552                 3.4588                 7.0363
 Frc consts  --      0.6831                 0.4929                 1.0088
 IR Inten    --     61.5570                 3.6312                 2.4559
 Raman Activ --      6.3595                 0.0432               104.3184
 Depolar (P) --      0.7494                 0.7500                 0.0713
 Depolar (U) --      0.8568                 0.8571                 0.1330
  Atom  AN      X      Y      Z        X      Y      Z        X      Y      Z
     1   6     0.00   0.00   0.00     0.00   0.00   0.18     0.16  -0.01   0.00
     2   6     0.00  -0.01   0.00     0.00   0.00  -0.11     0.27  -0.09   0.00
     3   6    -0.01  -0.04   0.00     0.00   0.00  -0.14     0.19  -0.12   0.00
     4   6     0.01  -0.02   0.00     0.00   0.00   0.13     0.05  -0.11   0.00
     5   6     0.02   0.00   0.00     0.00   0.00   0.00     0.00   0.01   0.00
     6   6     0.02   0.02   0.00     0.00   0.00  -0.15     0.02  -0.05   0.00
     7   6     0.00  -0.06   0.00     0.00   0.00   0.04     0.02  -0.07   0.00
     8   6    -0.01  -0.02   0.00     0.00   0.00   0.13    -0.05  -0.11   0.00
     9   6     0.01  -0.04   0.00     0.00   0.00  -0.14    -0.19  -0.12   0.00
    10   6     0.00  -0.06   0.00     0.00   0.00   0.04    -0.02  -0.07   0.00
    11   6     0.00  -0.01   0.00     0.00   0.00  -0.11    -0.27  -0.09   0.00
    12   1    -0.02   0.01   0.00     0.00   0.00  -0.13    -0.33  -0.06   0.00
    13   6     0.00   0.00   0.00     0.00   0.00   0.18    -0.16  -0.01   0.00
    14   6    -0.02   0.02   0.00     0.00   0.00  -0.15    -0.02  -0.05   0.00
    15   6    -0.02   0.00   0.00     0.00   0.00   0.00     0.00   0.01   0.00
    16   6     0.05  -0.05   0.00     0.00   0.00   0.06    -0.05   0.19   0.00
    17   6    -0.05  -0.05   0.00     0.00   0.00   0.06     0.05   0.19   0.00
    18   1     0.01  -0.06   0.00     0.00   0.00   0.25    -0.08  -0.13   0.00
    19   1     0.00  -0.02   0.00     0.00   0.00   0.45     0.16   0.13   0.00
    20   1     0.02   0.01   0.00     0.00   0.00  -0.13     0.33  -0.06   0.00
    21   1     0.02   0.02   0.00     0.00   0.00  -0.33     0.01  -0.04   0.00
    22   1    -0.01  -0.06   0.00     0.00   0.00   0.25     0.08  -0.13   0.00
    23   1     0.00  -0.02   0.00     0.00   0.00   0.45    -0.16   0.13   0.00
    24   1    -0.02   0.02   0.00     0.00   0.00  -0.33    -0.01  -0.04   0.00
    25   7     0.37   0.14   0.00     0.00   0.00  -0.02    -0.07   0.21   0.00
    26   1     0.57  -0.01   0.00     0.00   0.00  -0.02    -0.07   0.21   0.00
    27   7    -0.37   0.14   0.00     0.00   0.00  -0.02     0.07   0.21   0.00
    28   1    -0.57  -0.01   0.00     0.00   0.00  -0.02     0.07   0.21   0.00
                     16                     17                     18
                      A                      A                      A
 Frequencies --    510.1795               555.7338               565.6522
 Red. masses --      4.7557                 3.6726                 7.1482
 Frc consts  --      0.7293                 0.6683                 1.3476
 IR Inten    --      3.0533                 0.0000                 1.4175
 Raman Activ --      0.8001                 0.1441                35.6866
 Depolar (P) --      0.7500                 0.7500                 0.0582
 Depolar (U) --      0.8571                 0.8571                 0.1099
  Atom  AN      X      Y      Z        X      Y      Z        X      Y      Z
     1   6     0.03  -0.13   0.00     0.00   0.00   0.14    -0.06  -0.08   0.00
     2   6    -0.02  -0.05   0.00     0.00   0.00  -0.11     0.09  -0.12   0.00
     3   6     0.01   0.15   0.00     0.00   0.00   0.12     0.10   0.11   0.00
     4   6    -0.13   0.05   0.00     0.00   0.00   0.24    -0.04  -0.02   0.00
     5   6    -0.07  -0.02   0.00     0.00   0.00  -0.03    -0.18  -0.03   0.00
     6   6    -0.06  -0.17   0.00     0.00   0.00  -0.07    -0.23  -0.16   0.00
     7   6     0.24   0.10   0.00     0.00   0.00  -0.07    -0.01   0.32   0.00
     8   6    -0.13  -0.05   0.00     0.00   0.00  -0.24     0.04  -0.02   0.00
     9   6     0.01  -0.15   0.00     0.00   0.00  -0.12    -0.10   0.11   0.00
    10   6     0.24  -0.10   0.00     0.00   0.00   0.07     0.01   0.32   0.00
    11   6    -0.02   0.05   0.00     0.00   0.00   0.11    -0.09  -0.12   0.00
    12   1    -0.20   0.15   0.00     0.00   0.00   0.45    -0.01  -0.16   0.00
    13   6     0.03   0.13   0.00     0.00   0.00  -0.14     0.06  -0.08   0.00
    14   6    -0.06   0.17   0.00     0.00   0.00   0.07     0.23  -0.16   0.00
    15   6    -0.07   0.02   0.00     0.00   0.00   0.03     0.18  -0.03   0.00
    16   6    -0.01  -0.01   0.00     0.00   0.00   0.09     0.06  -0.01   0.00
    17   6    -0.01   0.01   0.00     0.00   0.00  -0.09    -0.06  -0.01   0.00
    18   1     0.43   0.21   0.00     0.00   0.00  -0.19    -0.12   0.26   0.00
    19   1     0.03  -0.09   0.00     0.00   0.00   0.13    -0.06   0.15   0.00
    20   1    -0.20  -0.15   0.00     0.00   0.00  -0.45     0.01  -0.16   0.00
    21   1    -0.03  -0.18   0.00     0.00   0.00  -0.30    -0.24  -0.16   0.00
    22   1     0.43  -0.21   0.00     0.00   0.00   0.19     0.12   0.26   0.00
    23   1     0.03   0.09   0.00     0.00   0.00  -0.13     0.06   0.15   0.00
    24   1    -0.03   0.18   0.00     0.00   0.00   0.30     0.24  -0.16   0.00
    25   7    -0.01  -0.01   0.00     0.00   0.00  -0.01     0.07  -0.02   0.00
    26   1    -0.01  -0.01   0.00     0.00   0.00  -0.18     0.08  -0.02   0.00
    27   7    -0.01   0.01   0.00     0.00   0.00   0.01    -0.07  -0.02   0.00
    28   1    -0.01   0.01   0.00     0.00   0.00   0.18    -0.08  -0.02   0.00
                     19                     20                     21
                      A                      A                      A
 Frequencies --    573.1895               583.2720               603.9970
 Red. masses --      4.0721                 3.0641                 6.5287
 Frc consts  --      0.7882                 0.6142                 1.4033
 IR Inten    --     19.8754                 0.0000                 0.0421
 Raman Activ --      2.6204                 0.8954                 2.1331
 Depolar (P) --      0.7500                 0.7500                 0.7500
 Depolar (U) --      0.8571                 0.8571                 0.8571
  Atom  AN      X      Y      Z        X      Y      Z        X      Y      Z
     1   6     0.00   0.00  -0.05     0.00   0.00   0.12     0.13  -0.02   0.00
     2   6     0.00   0.00   0.09     0.00   0.00  -0.11    -0.10   0.11   0.00
     3   6     0.00   0.00  -0.18     0.00   0.00  -0.08    -0.09   0.14   0.00
     4   6     0.00   0.00   0.00     0.00   0.00  -0.03     0.01   0.07   0.00
     5   6     0.00   0.00   0.23     0.00   0.00   0.07     0.13  -0.01   0.00
     6   6     0.00   0.00   0.00     0.00   0.00  -0.12     0.21   0.05   0.00
     7   6     0.00   0.00   0.00     0.00   0.00   0.16    -0.07   0.13   0.00
     8   6     0.00   0.00   0.00     0.00   0.00   0.03     0.01  -0.07   0.00
     9   6     0.00   0.00  -0.18     0.00   0.00   0.08    -0.09  -0.14   0.00
    10   6     0.00   0.00   0.00     0.00   0.00  -0.16    -0.07  -0.13   0.00
    11   6     0.00   0.00   0.09     0.00   0.00   0.11    -0.10  -0.11   0.00
    12   1     0.00   0.00   0.27     0.00   0.00   0.09    -0.23  -0.04   0.00
    13   6     0.00   0.00  -0.05     0.00   0.00  -0.12     0.13   0.02   0.00
    14   6     0.00   0.00   0.00     0.00   0.00   0.12     0.21  -0.05   0.00
    15   6     0.00   0.00   0.23     0.00   0.00  -0.07     0.13   0.01   0.00
    16   6     0.00   0.00  -0.18     0.00   0.00  -0.13    -0.11   0.14   0.00
    17   6     0.00   0.00  -0.18     0.00   0.00   0.13    -0.11  -0.14   0.00
    18   1     0.00   0.00   0.36     0.00   0.00   0.32     0.06   0.21   0.00
    19   1     0.00   0.00  -0.15     0.00   0.00   0.32     0.13  -0.23   0.00
    20   1     0.00   0.00   0.27     0.00   0.00  -0.09    -0.23   0.04   0.00
    21   1     0.00   0.00  -0.24     0.00   0.00  -0.25     0.22   0.05   0.00
    22   1     0.00   0.00   0.36     0.00   0.00  -0.32     0.06  -0.21   0.00
    23   1     0.00   0.00  -0.15     0.00   0.00  -0.32     0.13   0.23   0.00
    24   1     0.00   0.00  -0.24     0.00   0.00   0.25     0.22  -0.05   0.00
    25   7     0.00   0.00   0.08     0.00   0.00   0.00    -0.09   0.21   0.00
    26   1     0.00   0.00  -0.29     0.00   0.00   0.37    -0.06   0.19   0.00
    27   7     0.00   0.00   0.08     0.00   0.00   0.00    -0.09  -0.21   0.00
    28   1     0.00   0.00  -0.29     0.00   0.00  -0.37    -0.06  -0.19   0.00
                     22                     23                     24
                      A                      A                      A
 Frequencies --    663.1657               709.4389               717.7698
 Red. masses --      5.2096                 4.5199                 2.6990
 Frc consts  --      1.3499                 1.3403                 0.8193
 IR Inten    --      7.8787                 0.0000               126.7215
 Raman Activ --      5.3642                 1.1292                 0.0145
 Depolar (P) --      0.7500                 0.7500                 0.7500
 Depolar (U) --      0.8571                 0.8571                 0.8571
  Atom  AN      X      Y      Z        X      Y      Z        X      Y      Z
     1   6    -0.18  -0.06   0.00     0.00   0.00   0.01     0.00   0.00  -0.11
     2   6    -0.01  -0.14   0.00     0.00   0.00   0.01     0.00   0.00   0.06
     3   6     0.05   0.03   0.00     0.00   0.00  -0.16     0.00   0.00  -0.12
     4   6     0.18   0.09   0.00     0.00   0.00   0.00     0.00   0.00   0.16
     5   6     0.00   0.19   0.00     0.00   0.00   0.21     0.00   0.00  -0.13
     6   6    -0.01   0.07   0.00     0.00   0.00   0.00     0.00   0.00   0.06
     7   6     0.02   0.07   0.00     0.00   0.00   0.09     0.00   0.00  -0.02
     8   6     0.18  -0.09   0.00     0.00   0.00   0.00     0.00   0.00   0.16
     9   6     0.05  -0.03   0.00     0.00   0.00   0.16     0.00   0.00  -0.12
    10   6     0.02  -0.07   0.00     0.00   0.00  -0.09     0.00   0.00  -0.02
    11   6    -0.01   0.14   0.00     0.00   0.00  -0.01     0.00   0.00   0.06
    12   1     0.02   0.12   0.00     0.00   0.00  -0.12     0.00   0.00   0.36
    13   6    -0.18   0.06   0.00     0.00   0.00  -0.01     0.00   0.00  -0.11
    14   6    -0.01  -0.07   0.00     0.00   0.00   0.00     0.00   0.00   0.06
    15   6     0.00  -0.19   0.00     0.00   0.00  -0.21     0.00   0.00  -0.13
    16   6    -0.17  -0.08   0.00     0.00   0.00   0.28     0.00   0.00   0.01
    17   6    -0.17   0.08   0.00     0.00   0.00  -0.28     0.00   0.00   0.01
    18   1     0.10   0.12   0.00     0.00   0.00   0.20     0.00   0.00   0.27
    19   1    -0.18  -0.03   0.00     0.00   0.00  -0.09     0.00   0.00   0.12
    20   1     0.02  -0.12   0.00     0.00   0.00   0.12     0.00   0.00   0.36
    21   1     0.20  -0.06   0.00     0.00   0.00  -0.34     0.00   0.00   0.38
    22   1     0.10  -0.12   0.00     0.00   0.00  -0.20     0.00   0.00   0.27
    23   1    -0.18   0.03   0.00     0.00   0.00   0.09     0.00   0.00   0.12
    24   1     0.20   0.06   0.00     0.00   0.00   0.34     0.00   0.00   0.38
    25   7     0.06   0.08   0.00     0.00   0.00  -0.03     0.00   0.00  -0.03
    26   1     0.41  -0.16   0.00     0.00   0.00  -0.40     0.00   0.00   0.25
    27   7     0.06  -0.08   0.00     0.00   0.00   0.03     0.00   0.00  -0.03
    28   1     0.41   0.16   0.00     0.00   0.00   0.40     0.00   0.00   0.25
                     25                     26                     27
                      A                      A                      A
 Frequencies --    725.1061               755.1520               779.3380
 Red. masses --      5.7052                 2.6600                 1.2290
 Frc consts  --      1.7673                 0.8937                 0.4398
 IR Inten    --      4.5934                 0.0000                 5.1833
 Raman Activ --     13.6800                 3.9371                 0.0692
 Depolar (P) --      0.7500                 0.7500                 0.7500
 Depolar (U) --      0.8571                 0.8571                 0.8571
  Atom  AN      X      Y      Z        X      Y      Z        X      Y      Z
     1   6    -0.20  -0.01   0.00     0.00   0.00  -0.07     0.00   0.00   0.04
     2   6    -0.20   0.03   0.00     0.00   0.00   0.00     0.00   0.00   0.05
     3   6    -0.06  -0.09   0.00     0.00   0.00  -0.13     0.00   0.00   0.00
     4   6     0.03  -0.05   0.00     0.00   0.00   0.20     0.00   0.00   0.01
     5   6     0.08  -0.04   0.00     0.00   0.00  -0.05     0.00   0.00  -0.04
     6   6     0.08   0.10   0.00     0.00   0.00   0.01     0.00   0.00   0.03
     7   6     0.24  -0.16   0.00     0.00   0.00   0.06     0.00   0.00  -0.06
     8   6     0.03   0.05   0.00     0.00   0.00  -0.20     0.00   0.00   0.01
     9   6    -0.06   0.09   0.00     0.00   0.00   0.13     0.00   0.00   0.00
    10   6     0.24   0.16   0.00     0.00   0.00  -0.06     0.00   0.00  -0.06
    11   6    -0.20  -0.03   0.00     0.00   0.00   0.00     0.00   0.00   0.05
    12   1    -0.14  -0.07   0.00     0.00   0.00  -0.40     0.00   0.00  -0.35
    13   6    -0.20   0.01   0.00     0.00   0.00   0.07     0.00   0.00   0.04
    14   6     0.08  -0.10   0.00     0.00   0.00  -0.01     0.00   0.00   0.03
    15   6     0.08   0.04   0.00     0.00   0.00   0.05     0.00   0.00  -0.04
    16   6     0.07   0.06   0.00     0.00   0.00  -0.06     0.00   0.00   0.01
    17   6     0.07  -0.06   0.00     0.00   0.00   0.06     0.00   0.00   0.01
    18   1     0.22  -0.17   0.00     0.00   0.00   0.07     0.00   0.00   0.42
    19   1    -0.20  -0.24   0.00     0.00   0.00   0.31     0.00   0.00  -0.37
    20   1    -0.14   0.07   0.00     0.00   0.00   0.40     0.00   0.00  -0.35
    21   1     0.15   0.06   0.00     0.00   0.00   0.28     0.00   0.00  -0.20
    22   1     0.22   0.17   0.00     0.00   0.00  -0.07     0.00   0.00   0.42
    23   1    -0.20   0.24   0.00     0.00   0.00  -0.31     0.00   0.00  -0.37
    24   1     0.15  -0.06   0.00     0.00   0.00  -0.28     0.00   0.00  -0.20
    25   7    -0.03   0.01   0.00     0.00   0.00   0.04     0.00   0.00  -0.02
    26   1    -0.20   0.12   0.00     0.00   0.00  -0.30     0.00   0.00   0.14
    27   7    -0.03  -0.01   0.00     0.00   0.00  -0.04     0.00   0.00  -0.02
    28   1    -0.20  -0.12   0.00     0.00   0.00   0.30     0.00   0.00   0.14
                     28                     29                     30
                      A                      A                      A
 Frequencies --    799.0838               816.1134               818.8136
 Red. masses --      5.8650                 1.4913                 1.9360
 Frc consts  --      2.2065                 0.5852                 0.7648
 IR Inten    --     12.4095                 0.0000                 0.0000
 Raman Activ --     16.6273                 2.9976                11.0064
 Depolar (P) --      0.0687                 0.7500                 0.7500
 Depolar (U) --      0.1286                 0.8571                 0.8571
  Atom  AN      X      Y      Z        X      Y      Z        X      Y      Z
     1   6     0.24   0.01   0.00     0.00   0.00  -0.04     0.00   0.00   0.01
[...]
 ,-0.01480839,-0.01904293,-0.00000001,0.00398128,-0.00223492,0.,-0.0013
 7606,-0.00076064,0.,0.00009521,0.00012278,0.,-0.12111699,-0.26454340,-
 0.00000010,0.00059694,0.00015142,0.,0.00103657,0.00160191,0.,0.0023222
 1,0.00407357,0.,-0.00000059,-0.00003001,0.,-0.00000886,0.00000187,0.,-
 0.00006933,0.00009802,0.,0.00003878,-0.00005343,0.,-0.00013992,0.00000
 445,0.,0.00004787,0.00007235,0.,0.00042221,0.00010876,0.,0.12992811,0.
 27845695,0.,0.,-0.00011552,0.,0.,-0.00198531,0.,0.,0.00248830,0.,0.,0.
 00398671,0.,0.,0.00018899,0.,0.,-0.00001779,-0.00000006,-0.00000010,-0
 .03678668,0.,0.,-0.00073611,0.,0.,0.00973260,0.,0.,0.00472565,0.,0.,0.
 00015535,0.,0.,0.00019657,0.,0.,-0.00078779,0.,0.,0.00014741,0.,0.,-0.
 00080862,0.,0.,0.00004564,0.,0.,0.00007710,0.00000007,0.00000011,0.024
 98407,-0.33756878,-0.00226489,-0.00000008,-0.01149061,-0.00255532,0.,0
 .00098601,0.00268027,0.,0.00048190,0.00007159,0.,0.00080805,-0.0027266
 7,0.,-0.01060461,0.00206887,0.,-0.00061546,-0.00050768,0.,0.00005453,0
 .00001865,0.,0.00001216,0.00007439,0.,-0.00013220,0.00036125,0.,0.0000
 0376,-0.00001756,0.,-0.00000800,0.00001193,0.,-0.00002386,-0.00000548,
 0.,-0.00001879,-0.00002603,0.,-0.00005126,-0.00001664,0.,0.00016783,-0
 .00020628,0.,-0.00052681,0.00087640,0.,0.00001938,0.00003588,0.,0.3570
 8629,-0.00255757,-0.05866581,0.,0.02861216,0.00428863,0.,0.00201441,-0
 .00450236,0.,0.00026904,-0.00101947,0.,-0.00197040,-0.00444452,0.,-0.0
 2880259,0.00324751,0.,0.00097802,0.00068311,0.,-0.00023036,0.00020208,
 0.,-0.00017352,-0.00021135,0.,0.00033752,-0.00032700,0.,0.00006668,0.0
 0007300,0.,-0.00000451,-0.00000084,0.,0.00000131,-0.00006586,0.,-0.000
 04469,0.00007647,0.,0.00008643,0.00004465,0.,0.00013884,-0.00049752,0.
 ,-0.00136013,0.00079080,0.,-0.00003380,-0.00002256,0.,0.00257363,0.058
 21418,-0.00000008,0.,-0.03775947,0.,0.,0.00369731,0.,0.,0.00824726,0.,
 0.,-0.00094385,0.,0.,0.00669504,-0.00000002,0.,0.00317126,0.,0.,0.0001
 6225,0.,0.,-0.00094530,0.,0.,0.00013795,0.,0.,-0.00048306,0.,0.,0.0000
 5100,0.,0.,-0.00000364,0.,0.,0.00000509,0.,0.,0.00008016,0.,0.,0.00007
 880,0.,0.,-0.00020214,0.,0.,0.00015533,0.,0.,0.00008950,0.00000009,0.0
 0000001,0.02594108,0.01182727,0.01574461,0.,-0.12400866,-0.11696698,-0
 .00000007,-0.01104190,-0.02784536,-0.00000001,-0.00499046,0.00156578,0
 .,-0.00072975,0.00070395,0.,-0.00103460,0.00323477,0.,0.00131908,-0.00
 167419,0.,-0.00018366,-0.00166306,0.,0.00008454,-0.00015644,0.,0.00019
 791,0.00033496,0.,0.00005810,0.00010326,0.,-0.00002634,0.00000970,0.,-
 0.00002321,-0.00003976,0.,-0.00006339,-0.00016428,0.,-0.00044075,0.000
 22952,0.,-0.00002617,0.00016907,0.,0.00007654,0.00002757,0.,-0.0001680
 0,0.00096607,0.,0.00084576,-0.00058889,0.,0.12788584,-0.01523364,-0.01
 825370,-0.00000001,-0.11717482,-0.26996202,-0.00000012,0.00152062,0.00
 216954,0.,0.00065662,0.00130184,0.,0.00045760,0.00011302,0.,0.00402264
 ,-0.00265893,0.,0.00165408,0.00078098,0.,0.00041795,-0.00004021,0.,0.0
 0008498,0.00026024,0.,-0.00038832,0.00010040,0.,-0.00002760,-0.0000396
 3,0.,-0.00000970,0.00001349,0.,-0.00004666,0.00002953,0.,0.00001612,-0
 .00002810,0.,-0.00004933,-0.00002237,0.,0.00001880,0.00002700,0.,0.000
 01124,0.00015476,0.,-0.00034539,0.00039984,0.,0.00008073,0.00110688,0.
 ,0.12540076,0.28571821,0.,0.,0.00471838,-0.00000007,-0.00000012,-0.037
 68321,0.,0.,0.00356523,0.,0.,0.00590843,0.,0.,-0.00089237,0.,0.,0.0077
 6485,0.,0.,-0.00320005,0.,0.,0.00008580,0.,0.,-0.00006451,0.,0.,-0.000
 05091,0.,0.,0.00002474,0.,0.,0.00000863,0.,0.,-0.00000974,0.,0.,0.0000
 0858,0.,0.,0.00004430,0.,0.,0.00014148,0.,0.,-0.00118356,0.,0.,0.00012
 858,0.,0.,-0.00447365,0.00000008,0.00000013,0.02503389,0.01173953,-0.0
 1531753,0.,-0.00104760,-0.00317233,0.,-0.00058604,-0.00047693,0.,-0.00
 523041,-0.00206700,0.,-0.01185325,0.02810926,0.,-0.13286846,0.12472219
 ,0.00000003,0.00028207,-0.00002181,0.,0.00005580,0.00161610,0.,-0.0004
 4566,-0.00009348,0.,-0.00012681,-0.00012386,0.,-0.00006421,0.00013467,
 0.,-0.00006014,0.00000816,0.,-0.00002515,0.00004507,0.,0.00004646,-0.0
 0012373,0.,0.00012515,0.00001775,0.,-0.00018120,0.00023070,0.,0.000412
 66,0.00151723,0.,-0.00001900,0.00006579,0.,0.00085426,0.00065304,0.,0.
 00039457,-0.00077130,0.,0.13725860,0.01441113,-0.01686864,0.,-0.003433
 55,-0.00258825,0.,-0.00066584,0.00017558,0.,-0.00139908,0.00092125,0.,
 0.00088760,0.00487197,0.,0.12656079,-0.26590743,-0.00000006,0.00015756
 ,-0.00006296,0.,0.00005610,0.00024240,0.,0.00005531,0.00013258,0.,-0.0
 0010206,-0.00002831,0.,-0.00005723,-0.00001411,0.,-0.00000354,-0.00000
 047,0.,0.00002756,0.00004758,0.,0.00004550,-0.00005762,0.,0.00005656,-
 0.00011558,0.,0.00004405,0.00016322,0.,0.00024997,-0.00215627,0.,-0.00
 002667,0.00002093,0.,-0.00000670,0.00118531,0.,0.00070774,-0.00080781,
 0.,-0.13465513,0.28175432,0.,0.,0.00473385,0.,0.,0.00670162,0.,0.,-0.0
 0104415,0.,0.,0.00749094,0.,0.00000001,0.00392345,0.00000002,-0.000000
 07,-0.03974016,0.,0.,-0.00079302,0.,0.,0.00041089,0.,0.,-0.00046380,0.
 ,0.,0.00013960,0.,0.,-0.00005460,0.,0.,-0.00003026,0.,0.,0.00003195,0.
 ,0.,-0.00002864,0.,0.,0.00016521,0.,0.,0.00001339,0.,0.,-0.00433911,0.
 ,0.,0.00001246,0.,0.,-0.00375922,0.,0.,-0.00023266,-0.00000003,0.00000
 008,0.02564426,-0.00053835,0.00006801,0.,0.00004656,0.00146894,0.,-0.0
 0478632,-0.00212680,0.,-0.00045065,-0.00023051,0.,0.00032819,0.0000969
 7,0.,-0.00016481,-0.00011549,0.,-0.01195329,0.02913786,0.,-0.00175293,
 -0.00271683,0.,0.00996588,-0.01462479,0.,-0.12860164,0.12056857,0.0000
 0002,0.00114246,-0.00125156,0.,-0.00016800,0.00034539,0.,0.00010588,0.
 00036873,0.,0.00021021,-0.00009611,0.,0.00052533,-0.00065044,0.,-0.000
 19128,-0.00013479,0.,-0.00012358,-0.00015179,0.,0.00120520,-0.00026019
 ,0.,-0.00009462,0.00014342,0.,-0.00000762,-0.00006084,0.,-0.00000112,0
 .00001223,0.,0.13523101,0.00006933,0.00009802,0.,0.00000059,-0.0000300
 1,0.,-0.00103657,0.00160191,0.,-0.00059694,0.00015142,0.,0.00013992,0.
 00000445,0.,-0.00003878,-0.00005343,0.,-0.00232221,0.00407357,0.,-0.00
 398128,-0.00223492,0.,0.01480839,-0.01904293,0.,0.12111699,-0.26454339
 ,-0.00000004,0.00189030,0.00125128,0.,-0.00096607,0.00039984,0.,-0.000
 26488,0.00000009,0.,-0.00009521,0.00012277,0.,0.00137606,-0.00076064,0
 .,-0.00042221,0.00010876,0.,-0.00004787,0.00007235,0.,0.00026019,0.000
 81900,0.,0.00000081,-0.00000019,0.,0.00000886,0.00000187,0.,0.00002092
 ,-0.00000674,0.,-0.12992810,0.27845694,0.,0.,-0.00078779,0.,0.,0.00015
 535,0.,0.,0.00973260,0.,0.,-0.00073611,0.,0.,-0.00080862,0.,0.,0.00014
 741,0.,0.,0.00472565,0.,0.,0.00398671,0.,0.,0.00248830,0.00000002,-0.0
 0000004,-0.03678668,0.,0.,-0.00198531,0.,0.,0.00012858,0.,0.,-0.000115
 52,0.,0.,-0.00001779,0.,0.,0.00018899,0.,0.,0.00007710,0.,0.,0.0000456
 4,0.,0.,-0.00576847,0.,0.,-0.00000948,0.,0.,0.00019657,0.,0.,0.0000902
 9,-0.00000001,0.00000005,0.02498408,-0.00002386,0.00000548,0.,0.000003
 76,0.00001756,0.,0.00001216,-0.00007439,0.,0.00005453,-0.00001865,0.,-
 0.00005126,0.00001664,0.,-0.00001879,0.00002603,0.,-0.00013221,-0.0003
 6125,0.,0.00048190,-0.00007159,0.,0.00098601,-0.00268027,0.,-0.0006154
 6,0.00050768,0.,-0.01149061,0.00255532,0.,0.00084576,-0.00008073,0.,-0
 .33756878,0.00226489,-0.00000005,-0.01060461,-0.00206887,0.,0.00080805
 ,0.00272667,0.,-0.00052681,-0.00087640,0.,0.00016783,0.00020628,0.,-0.
 00009462,-0.00000081,0.,-0.00001583,0.00000044,0.,-0.00000800,-0.00001
 193,0.,-0.00000606,0.00000367,0.,0.00001938,-0.00003588,0.,0.35708629,
 -0.00000131,-0.00006586,0.,-0.00006668,0.00007300,0.,0.00017352,-0.000
 21135,0.,0.00023036,0.00020208,0.,-0.00008643,0.00004465,0.,0.00004469
 ,0.00007647,0.,-0.00033752,-0.00032700,0.,-0.00026904,-0.00101947,0.,-
 0.00201441,-0.00450236,0.,-0.00097802,0.00068311,0.,-0.02861216,0.0042
 8863,0.,0.00058889,0.00110688,0.,0.00255757,-0.05866581,0.,0.02880259,
 0.00324751,0.,0.00197040,-0.00444452,0.,0.00136013,0.00079080,0.,-0.00
 013884,-0.00049752,0.,-0.00014342,-0.00000019,0.,-0.00000044,0.0000049
 1,0.,0.00000451,-0.00000084,0.,-0.00000765,-0.00000258,0.,0.00003380,-
 0.00002256,0.,-0.00257363,0.05821418,0.,0.,0.00000509,0.,0.,0.00005100
 ,0.,0.,0.00013795,0.,0.,-0.00094530,0.,0.,0.00007880,0.,0.,0.00008016,
 0.,0.,-0.00048306,0.,0.,-0.00094385,0.,0.,0.00824726,0.,0.,0.00016225,
 0.,0.,0.00369731,0.,0.,-0.00447365,-0.00000004,0.,-0.03775947,0.,0.,0.
 00317126,0.,0.,0.00669504,0.,0.,0.00015533,0.,0.,-0.00020214,0.,0.,-0.
 00000948,0.,0.,-0.00001513,0.,0.,-0.00000364,0.,0.,0.00000255,0.,0.,0.
 00008950,0.00000005,0.,0.02594108,-0.00002515,-0.00004507,0.,-0.000064
 21,-0.00013467,0.,-0.00044566,0.00009348,0.,0.00005580,-0.00161610,0.,
 0.00012515,-0.00001775,0.,0.00004646,0.00012373,0.,-0.00012681,0.00012
 386,0.,-0.00523041,0.00206700,0.,-0.00058604,0.00047693,0.,0.00028207,
 0.00002181,0.,-0.00104760,0.00317233,0.,0.00039457,0.00077130,0.,0.011
 73953,0.01531753,0.,-0.13286846,-0.12472219,-0.00000001,-0.01185325,-0
 .02810926,0.,0.00041266,-0.00151723,0.,-0.00018120,-0.00023070,0.,-0.0
 0000112,-0.00002092,0.,-0.00000606,0.00000765,0.,-0.00006014,-0.000008
 16,0.,-0.00003681,-0.00000021,0.,-0.00001900,-0.00006579,0.,0.00085426
 ,-0.00065304,0.,0.13725860,-0.00002756,0.00004758,0.,0.00005723,-0.000
 01411,0.,-0.00005531,0.00013258,0.,-0.00005610,0.00024240,0.,-0.000056
 56,-0.00011558,0.,-0.00004550,-0.00005762,0.,0.00010205,-0.00002831,0.
 ,0.00139908,0.00092125,0.,0.00066584,0.00017558,0.,-0.00015756,-0.0000
 6296,0.,0.00343355,-0.00258825,0.,-0.00070774,-0.00080781,0.,-0.014411
 13,-0.01686864,0.,-0.12656079,-0.26590743,-0.00000004,-0.00088760,0.00
 487197,0.,-0.00024997,-0.00215627,0.,-0.00004405,0.00016322,0.,-0.0000
 1223,-0.00000674,0.,-0.00000367,-0.00000258,0.,0.00000354,-0.00000047,
 0.,0.00000021,0.00000427,0.,0.00002667,0.00002093,0.,0.00000670,0.0011
 8531,0.,0.13465513,0.28175432,0.,0.,0.00003195,0.,0.,-0.00005460,0.,0.
 ,-0.00046380,0.,0.,0.00041089,0.,0.,0.00016521,0.,0.,-0.00002864,0.,0.
 ,0.00013960,0.,0.,0.00749094,0.,0.,-0.00104415,0.,0.,-0.00079302,0.,0.
 ,0.00670162,0.,0.,-0.00023266,0.,0.,0.00473385,-0.00000001,-0.00000002
 ,-0.03974016,0.,-0.00000002,0.00392345,0.,0.00000001,-0.00433911,0.,0.
 ,0.00001339,0.,0.,0.00009029,0.,0.,0.00000255,0.,0.,-0.00003026,0.,0.,
 0.00000853,0.,0.,0.00001246,0.,0.,-0.00375922,0.,0.00000003,0.02564426
 ,-0.00061355,-0.00011653,0.,-0.00032997,-0.00020003,0.,0.00019179,-0.0
 0007099,0.,-0.00161295,0.00040156,0.,-0.00825354,0.00428435,0.,-0.0002
 0368,-0.00323390,0.,-0.00008632,0.00014799,0.,-0.00068594,0.00348406,0
 .,0.00006181,0.00086914,0.,-0.00007084,0.00003075,0.,0.00133536,0.0019
 9208,0.,0.00009135,0.00008386,0.,0.00177946,-0.00290490,0.,-0.00840051
 ,0.00559203,-0.00000002,0.02258965,0.00117645,-0.00000004,-0.23996158,
 -0.17033140,0.00000077,-0.03464129,-0.03291221,0.00000020,0.00001544,-
 0.00008590,0.,-0.00024686,-0.00030441,0.,0.00000987,-0.00009612,0.,0.0
 0031203,0.00013907,0.,0.00006214,0.00003725,0.,0.00007549,-0.00017615,
 0.,0.00016900,0.00316470,0.,0.43190631,-0.00042959,0.00109427,0.,0.000
 85019,-0.00012683,0.,-0.00110604,0.00050066,0.,-0.00137639,0.00043668,
 0.,0.00052734,0.00144399,0.,-0.00108797,-0.00063826,0.,0.00039334,-0.0
 0070493,0.,0.01179611,0.00260424,0.,0.00196606,-0.00235276,0.,-0.00015
 687,-0.00001905,0.,0.00073103,-0.00073517,0.,-0.00000186,-0.00029255,0
 .,-0.00206313,-0.00408635,0.,-0.00828093,-0.00076215,0.00000003,-0.004
 59605,-0.06815356,0.00000013,-0.22835726,-0.42033146,0.00000134,-0.029
 24391,0.00135465,0.00000011,-0.00016173,-0.00008624,0.,-0.00010109,-0.
 00000616,0.,-0.00008626,-0.00009330,0.,-0.00012722,0.00000725,0.,-0.00
 005531,-0.00036284,0.,0.00043444,-0.00013910,0.,-0.00006973,-0.0009926
 2,0.,0.04809587,0.77412444,0.,0.,0.00045383,0.,0.,-0.00013972,0.,0.,0.
 00047623,0.,0.,-0.00160579,0.00000004,-0.00000002,0.00177202,0.,0.0000
 0002,-0.00050326,0.,0.,-0.00004434,-0.00000002,-0.00000002,0.00254579,
 -0.00000001,0.,0.00003977,0.,0.,0.00003758,0.,0.,-0.00024921,0.,0.,0.0
 0026262,0.,0.,-0.00090817,0.,0.00000002,0.00167405,-0.00000003,0.00000
 013,-0.00512063,0.00000093,0.00000118,-0.04412667,0.00000014,0.0000001
 6,0.02254928,0.,0.,0.00000260,0.,0.,-0.00009912,0.,0.,-0.00004813,0.,0
 .,-0.00006874,0.,0.,-0.00000657,0.,0.,0.00010650,0.,0.,0.00172078,-0.0
 0000073,-0.00000192,0.04976660,-0.00000310,0.00010020,0.,0.00008334,0.
 00011631,0.,0.00007312,0.00007594,0.,0.00023106,0.00012369,0.,0.001120
 37,0.00032190,0.,-0.00014255,0.00031291,0.,0.00002630,0.00001536,0.,0.
 00041829,-0.00006511,0.,-0.00000302,0.00002720,0.,0.00000379,0.0000344
 5,0.,0.00004603,0.00016867,0.,0.00001868,0.00006687,0.,0.00029616,-0.0
 0008620,0.,-0.00080447,0.00060429,0.,-0.00102037,-0.00171864,0.0000000
 3,0.00964609,-0.02743125,0.00000005,-0.00410400,0.00102611,-0.00000002
 ,0.00000380,0.00003044,0.,0.00006286,0.00004987,0.,0.00000314,0.000032
 39,0.,-0.00010309,-0.00006509,0.,-0.00000829,0.00001675,0.,-0.00005451
 ,0.00003773,0.,0.00100489,-0.00016496,0.,-0.16191816,0.19992572,-0.000
 00030,0.16048231,-0.00004223,-0.00001597,0.,-0.00005684,0.00010084,0.,
 0.00013904,0.00007308,0.,0.00032922,-0.00016369,0.,0.00035849,-0.00007
 565,0.,0.00015310,0.00035324,0.,-0.00003664,-0.00001294,0.,0.00127761,
 -0.00126822,0.,-0.00071039,-0.00023503,0.,0.00017686,-0.00008051,0.,0.
 00003057,0.00013949,0.,0.00002037,0.00000707,0.,0.00025497,0.00004583,
 0.,-0.00070699,0.00070425,0.,-0.00559179,-0.00181337,0.00000006,0.0224
 2234,-0.04010182,0.00000003,0.00462361,-0.00189935,-0.00000003,-0.0000
 0812,0.00000802,0.,0.00002744,0.00002168,0.,-0.00001096,0.00001526,0.,
 -0.00009075,0.00002171,0.,-0.00003689,-0.00004735,0.,0.00000894,-0.000
 03391,0.,0.00016210,0.00006100,0.,0.14949822,-0.27802219,0.00000044,-0
 .17086519,0.31586053,0.,0.,-0.00021777,0.,0.,0.00002202,0.,0.,-0.00016
 776,0.,0.,0.00073005,0.,0.,0.00032675,0.,0.,0.00019684,0.,0.,0.0000691
 9,-0.00000001,0.00000002,0.00043033,0.00000001,0.,-0.00087033,0.,0.,-0
 .00012556,0.,0.,0.00012344,0.,0.,-0.00004102,0.,0.,0.00010687,0.000000
 01,-0.00000001,-0.00065822,0.00000006,0.00000002,0.01435476,-0.0000001
 2,0.00000015,-0.00073595,0.,-0.00000005,-0.01012282,0.,0.,0.00000262,0
 .,0.,0.00003872,0.,0.,0.00002162,0.,0.,0.00006481,0.,0.,-0.00003212,0.
 ,0.,0.00003425,0.,0.,-0.00060023,-0.00000018,0.00000037,-0.02740378,0.
 00000023,-0.00000049,0.02186523,0.00177946,0.00290490,0.,0.00133536,-0
 .00199208,0.,0.00006181,-0.00086914,0.,-0.00068594,-0.00348406,0.,0.02
 258965,-0.00117645,0.,-0.00840051,-0.00559203,0.,-0.00007084,-0.000030
 75,0.,-0.00161295,-0.00040156,0.,0.00019179,0.00007099,0.,-0.00008632,
 -0.00014799,0.,-0.00032997,0.00020003,0.,0.00000987,0.00009612,0.,-0.0
 0061355,0.00011653,0.,-0.00020368,0.00323390,0.,-0.00825354,-0.0042843
 5,0.00000001,-0.03464129,0.03291221,0.00000005,-0.23996159,0.17033140,
 0.00000002,0.00006214,-0.00003725,0.,0.00007549,0.00017615,0.,0.000091
 35,-0.00008386,0.,0.00016900,-0.00316470,0.,0.00001544,0.00008590,0.,-
 0.00024686,0.00030441,0.,0.00031202,-0.00013907,0.,-0.00059966,0.00664
 222,-0.00000002,-0.00097484,0.00192260,0.,0.43190631,0.00206313,-0.004
 08635,0.,-0.00073103,-0.00073517,0.,-0.00196606,-0.00235276,0.,-0.0117
 9611,0.00260424,0.,0.00459605,-0.06815356,-0.00000002,0.00828093,-0.00
 076215,0.,0.00015687,-0.00001906,0.,0.00137639,0.00043668,0.,0.0011060
 4,0.00050066,0.,-0.00039334,-0.00070493,0.,-0.00085019,-0.00012683,0.,
 0.00008626,-0.00009330,0.,0.00042959,0.00109427,0.,0.00108797,-0.00063
 826,0.,-0.00052734,0.00144399,-0.00000001,0.02924391,0.00135465,0.,0.2
 2835726,-0.42033146,-0.00000002,0.00005531,-0.00036284,0.,-0.00043444,
 -0.00013910,0.,0.00000186,-0.00029255,0.,0.00006973,-0.00099262,0.,0.0
 0016173,-0.00008624,0.,0.00010109,-0.00000616,0.,0.00012722,0.00000725
 ,0.,-0.00664222,-0.00887210,0.00000002,-0.00593901,0.00521146,0.000000
 02,-0.04809587,0.77412444,0.,0.,-0.00090817,0.,0.,-0.00024921,0.,0.,0.
 00003977,0.,0.,0.00254579,0.,-0.00000003,-0.00512063,0.,0.,0.00167405,
 0.,0.,0.00003758,0.,0.,-0.00160579,0.,0.,0.00047623,0.,0.,-0.00004434,
 0.,0.,-0.00013972,0.,0.,-0.00004813,0.,0.,0.00045383,0.,0.,-0.00050326
 ,0.,0.,0.00177202,0.00000007,-0.00000001,0.02254928,-0.00000003,0.0000
 0004,-0.04412667,0.,0.,-0.00000657,0.,0.,0.00010650,0.,0.,0.00026262,0
 .,0.,0.00172078,0.,0.,0.00000260,0.,0.,-0.00009912,0.,0.,-0.00006874,-
 0.00000001,0.,-0.00122307,0.,-0.00000001,0.00013956,-0.00000010,-0.000
 00006,0.04976660,0.00029616,0.00008620,0.,0.00004603,-0.00016867,0.,-0
 .00000302,-0.00002720,0.,0.00041829,0.00006511,0.,-0.00102037,0.001718
 64,0.00000001,-0.00080447,-0.00060429,0.,0.00000379,-0.00003445,0.,0.0
 0023106,-0.00012369,0.,0.00007312,-0.00007594,0.,0.00002630,-0.0000153
 6,0.,0.00008334,-0.00011631,0.,0.00000314,-0.00003239,0.,-0.00000310,-
 0.00010020,0.,-0.00014255,-0.00031291,0.,0.00112037,-0.00032190,0.,-0.
 00410400,-0.00102611,0.00000003,0.00964609,0.02743125,-0.00000002,-0.0
 0000829,-0.00001675,0.,-0.00005451,-0.00003773,0.,0.00001868,-0.000066
 87,0.,0.00100489,0.00016496,0.,0.00000380,-0.00003044,0.,0.00006287,-0
 .00004987,0.,-0.00010309,0.00006509,0.,-0.00097484,0.00593901,-0.00000
 004,-0.00438382,-0.00324867,0.00000002,-0.16191816,-0.19992571,0.00000
 007,0.16048231,-0.00025497,0.00004583,0.,-0.00003057,0.00013949,0.,0.0
 0071039,-0.00023503,0.,-0.00127761,-0.00126822,0.,0.00559179,-0.001813
 37,0.,0.00070699,0.00070425,0.,-0.00017686,-0.00008051,0.,-0.00032922,
 -0.00016369,0.,-0.00013904,0.00007308,0.,0.00003664,-0.00001294,0.,0.0
 0005684,0.00010084,0.,0.00001096,0.00001526,0.,0.00004223,-0.00001597,
 0.,-0.00015310,0.00035324,0.,-0.00035849,-0.00007565,0.,-0.00462361,-0
 .00189935,0.,-0.02242234,-0.04010182,0.,0.00003689,-0.00004735,0.,-0.0
 0000894,-0.00003391,0.,-0.00002037,0.00000707,0.,-0.00016210,0.0000610
 0,0.,0.00000812,0.00000802,0.,-0.00002744,0.00002168,0.,0.00009075,0.0
 0002171,0.,-0.00192260,0.00521146,0.,0.00324867,0.00114650,-0.00000001
 ,-0.14949822,-0.27802219,0.00000009,0.17086519,0.31586053,0.,0.,0.0001
 0687,0.,0.,0.00012344,0.,0.,-0.00087033,0.,0.,0.00043033,0.,0.,0.01435
 476,0.,0.,-0.00065822,0.,0.,-0.00012556,0.,0.,0.00073005,0.,0.,-0.0001
 6776,0.,0.,0.00006919,0.,0.,0.00002202,0.,0.,0.00002162,0.,0.,-0.00021
 777,0.,0.,0.00019684,0.,0.,0.00032675,0.,0.00000002,-0.01012282,0.,0.0
 0000001,-0.00073595,0.,0.,-0.00003212,0.,0.,0.00003425,0.,0.,-0.000041
 02,0.,0.,-0.00060023,0.,0.,0.00000262,0.,0.,0.00003872,0.,0.,0.0000648
 1,0.00000001,-0.00000003,0.00013956,0.00000001,0.00000002,0.00244853,0
 .00000005,0.00000008,-0.02740378,-0.00000007,-0.00000009,0.02186522||0
 .00003390,-0.00006460,0.,-0.00001301,0.00016052,0.,0.00000269,-0.00031
 277,0.,0.00013823,0.00008035,-0.00000002,-0.00007323,0.00000330,-0.000
 00007,0.00003215,0.00002519,-0.00000001,-0.00008838,0.00016630,0.,-0.0
 0013823,0.00008035,-0.00000002,-0.00000269,-0.00031277,0.,0.00008838,0
 .00016630,0.,0.00001301,0.00016052,0.,0.00000033,-0.00003007,0.,-0.000
 03390,-0.00006460,0.,-0.00003215,0.00002519,-0.00000001,0.00007323,0.0
 0000330,-0.00000008,0.00001977,0.00000557,0.00000018,-0.00001977,0.000
 00557,0.00000016,0.00002198,-0.00001640,0.,-0.00001881,-0.00000747,0.,
 -0.00000033,-0.00003007,0.,-0.00000010,0.00001480,0.,-0.00002198,-0.00
 001640,0.,0.00001881,-0.00000747,0.,0.00000010,0.00001480,0.,0.0001405
 4,-0.00009958,-0.00000003,-0.00008075,0.00007485,-0.00000003,-0.000140
 54,-0.00009958,-0.00000005,0.00008075,0.00007485,-0.00000004|||@
 The archive entry for this job was punched.


 THE MOST INCOMPREHENSIBLE THING ABOUT THE WORLD
 IS THAT IT IS COMPREHENSIBLE. -- A. EINSTEIN
 Job cpu time:       0 days  2 hours 33 minutes 47.0 seconds.
 Elapsed time:       0 days  2 hours 33 minutes 45.1 seconds.
 File lengths (MBytes):  RWF=    607 Int=      0 D2E=      0 Chk=     28 Scr=      1
 Normal termination of Gaussian 16 at Tue Aug 15 23:36:23 2023.
