 Entering Link 1 = C:\G16W\l1.exe PID=     12380.
  
 Copyright (c) 1988-2019, Gaussian, Inc.  All Rights Reserved.
  
 This is part of the Gaussian(R) 16 program.  It is based on
 the Gaussian(R) 09 system (copyright 2009, Gaussian, Inc.),
 the Gaussian(R) 03 system (copyright 2003, Gaussian, Inc.),
 the Gaussian(R) 98 system (copyright 1998, Gaussian, Inc.),
 the Gaussian(R) 94 system (copyright 1995, Gaussian, Inc.),
 the Gaussian 92(TM) system (copyright 1992, Gaussian, Inc.),
 the Gaussian 90(TM) system (copyright 1990, Gaussian, Inc.),
 the Gaussian 88(TM) system (copyright 1988, Gaussian, Inc.),
 the Gaussian 86(TM) system (copyright 1986, Carnegie Mellon
 University), and the Gaussian 82(TM) system (copyright 1983,
 Carnegie Mellon University). Gaussian is a federally registered
 trademark of Gaussian, Inc.
  
 This software contains proprietary and confidential information,
 including trade secrets, belonging to Gaussian, Inc.
  
 This software is provided under written license and may be
 used, copied, transmitted, or stored only in accord with that
 written license.
  
 The following legend is applicable only to US Government
 contracts under FAR:
  
                    RESTRICTED RIGHTS LEGEND
  
 Use, reproduction and disclosure by the US Government is
 subject to restrictions as set forth in subparagraphs (a)
 and (c) of the Commercial Computer Software - Restricted
 Rights clause in FAR 52.227-19.
  
 Gaussian, Inc.
 340 Quinnipiac St., Bldg. 40, Wallingford CT 06492
  
  
 ---------------------------------------------------------------
 Warning -- This program may not be used in any manner that
 competes with the business of Gaussian, Inc. or will provide
 assistance to any competitor of Gaussian, Inc.  The licensee
 of this program is prohibited from giving any competitor of
 Gaussian, Inc. access to this program.  By using this program,
 the user acknowledges that Gaussian, Inc. is engaged in the
 business of creating and licensing software in the field of
 computational chemistry and represents and warrants to the
 licensee that it is not a competitor of Gaussian, Inc. and that
 it will not use this program in any manner prohibited above.
 ---------------------------------------------------------------
  

 Cite this work as:
 Gaussian 16, Revision C.01,
 M. J. Frisch, G. W. Trucks, H. B. Schlegel, G. E. Scuseria, 
 M. A. Robb, J. R. Cheeseman, G. Scalmani, V. Barone, 
 G. A. Petersson, H. Nakatsuji, X. Li, M. Caricato, A. V. Marenich, 
 J. Bloino, B. G. Janesko, R. Gomperts, B. Mennucci, H. P. Hratchian, 
 J. V. Ortiz, A. F. Izmaylov, J. L. Sonnenberg, D. Williams-Young, 
 F. Ding, F. Lipparini, F. Egidi, J. Goings, B. Peng, A. Petrone, 
 T. Henderson, D. Ranasinghe, V. G. Zakrzewski, J. Gao, N. Rega, 
 G. Zheng, W. Liang, M. Hada, M. Ehara, K. Toyota, R. Fukuda, 
 J. Hasegawa, M. Ishida, T. Nakajima, Y. Honda, O. Kitao, H. Nakai, 
 T. Vreven, K. Throssell, J. A. Montgomery, Jr., J. E. Peralta, 
 F. Ogliaro, M. J. Bearpark, J. J. Heyd, E. N. Brothers, K. N. Kudin, 
 V. N. Staroverov, T. A. Keith, R. Kobayashi, J. Normand, 
 K. Raghavachari, A. P. Rendell, J. C. Burant, S. S. Iyengar, 
 J. Tomasi, M. Cossi, J. M. Millam, M. Klene, C. Adamo, R. Cammi, 
 J. W. Ochterski, R. L. Martin, K. Morokuma, O. Farkas, 
 J. B. Foresman, and D. J. Fox, Gaussian, Inc., Wallingford CT, 2019.
 
 ******************************************
 Gaussian 16:  EM64W-G16RevC.01 30-May-2019
                15-Aug-2023 
 ******************************************
 %nprocshared=4
 Will use up to    4 processors via shared memory.
 %mem=4GB
 %chk=C:\Users\jared\Desktop\spectras\4-ONE_5-IMINE-PYRENE\ethanol_solvent\ETHANO
 L-4-ONE_5-IMINE-PYRENE.chk
 ----------------------------------------------------------------------
 # freq=raman b3lyp/6-311++g(d,p) scrf=(cpcm,solvent=ethanol) geom=conn
 ectivity
 ----------------------------------------------------------------------
 1/10=4,30=1,38=1,57=2/1,3;
 2/12=2,17=6,18=5,40=1/2;
 3/5=4,6=6,7=1111,11=2,25=1,30=1,70=2101,71=2,72=4,74=-5,140=1/1,2,3;
 4//1;
 5/5=2,38=5,53=4,98=1/2;
 8/6=4,10=90,11=11/1;
 10/13=10,15=4/2;
 11/6=3,8=1,9=11,15=111,16=1/1,2,10;
 10/6=1/2;
 6/7=2,8=2,9=2,10=2,28=1/1;
 7/8=1,10=1,25=1/1,2,3,16;
 1/10=4,30=1/3;
 99//99;
 -------------------
 Title Card Required
 -------------------
 Symbolic Z-matrix:
 Charge =  0 Multiplicity = 1
 C                    -3.53068  -0.50652   0.00001 
 C                    -2.80439  -1.68368   0.00001 
 C                    -1.3932   -1.67404  0. 
 C                    -0.70925  -0.42801  -0.00002 
 C                    -1.47254   0.76876  -0.00002 
 C                    -2.86252   0.72181  0. 
 C                    -0.63778  -2.89381  0. 
 C                     0.73567  -0.40763  -0.00001 
 C                     1.4474   -1.63856  -0.00001 
 C                     0.71982  -2.87533  0. 
 C                     2.85779  -1.6183    0. 
 H                     3.39534  -2.56062   0. 
 C                     3.54774  -0.42103   0.00001 
 C                     2.84975   0.79243   0.00001 
 C                     1.46036   0.81188  0. 
 H                    -1.17623  -3.83535   0.00001 
 H                    -4.61399  -0.53442   0.00002 
 H                    -3.31805  -2.63949   0.00002 
 H                    -3.40968   1.65659  -0.00001 
 H                     1.28185  -3.80308   0. 
 H                     4.63166  -0.41764   0.00002 
 H                     3.37798   1.73751   0.00002 
 N                     1.35471   3.21559   0.00002 
 H                     0.66515   3.97525   0. 
 O                    -1.39974   3.14078   0.00006 
 C                    -0.7964    2.0822   -0.00007 
 C                     0.73505   2.10083  0. 
 

 GradGradGradGradGradGradGradGradGradGradGradGradGradGradGradGradGradGrad
 Berny optimization.
 Initialization pass.
 Trust Radius=3.00D-01 FncErr=1.00D-07 GrdErr=1.00D-07 EigMax=2.50D+02 EigMin=1.00D-04
 Number of steps in this run=      2 maximum allowed number of steps=      2.
 GradGradGradGradGradGradGradGradGradGradGradGradGradGradGradGradGradGrad

                          Input orientation:                          
 ---------------------------------------------------------------------
 Center     Atomic      Atomic             Coordinates (Angstroms)
 Number     Number       Type             X           Y           Z
 ---------------------------------------------------------------------
      1          6           0       -3.530678   -0.506518    0.000012
      2          6           0       -2.804388   -1.683679    0.000010
      3          6           0       -1.393201   -1.674042   -0.000003
      4          6           0       -0.709253   -0.428011   -0.000016
      5          6           0       -1.472541    0.768760   -0.000025
      6          6           0       -2.862521    0.721807   -0.000005
      7          6           0       -0.637784   -2.893807   -0.000001
      8          6           0        0.735674   -0.407635   -0.000015
      9          6           0        1.447401   -1.638560   -0.000008
     10          6           0        0.719817   -2.875332   -0.000005
     11          6           0        2.857793   -1.618302    0.000000
     12          1           0        3.395338   -2.560619    0.000004
     13          6           0        3.547740   -0.421033    0.000008
     14          6           0        2.849746    0.792430    0.000008
     15          6           0        1.460358    0.811881   -0.000005
     16          1           0       -1.176230   -3.835350    0.000007
     17          1           0       -4.613990   -0.534419    0.000023
     18          1           0       -3.318053   -2.639491    0.000022
     19          1           0       -3.409677    1.656595   -0.000011
     20          1           0        1.281849   -3.803080    0.000000
     21          1           0        4.631659   -0.417645    0.000016
     22          1           0        3.377980    1.737507    0.000015
     23          7           0        1.354715    3.215590    0.000017
     24          1           0        0.665147    3.975252    0.000000
     25          8           0       -1.399736    3.140777    0.000060
     26          6           0       -0.796398    2.082198   -0.000066
     27          6           0        0.735046    2.100827   -0.000002
 ---------------------------------------------------------------------
                    Distance matrix (angstroms):
                    1          2          3          4          5
     1  C    0.000000
     2  C    1.383187   0.000000
     3  C    2.435554   1.411220   0.000000
     4  C    2.822517   2.442600   1.421400   0.000000
     5  C    2.421211   2.790748   2.444090   1.419461   0.000000
     6  C    1.398291   2.406189   2.810515   2.441034   1.390773
     7  C    3.750731   2.481649   1.434741   2.466832   3.756490
     8  C    4.267498   3.763021   2.477074   1.445071   2.502023
     9  C    5.105173   4.252029   2.840824   2.473173   3.784343
    10  C    4.866004   3.720223   2.430626   2.834012   4.252745
    11  C    6.484492   5.662559   4.251360   3.760400   4.944680
    12  H    7.224198   6.261440   4.869921   4.625547   5.897543
    13  C    7.078935   6.476404   5.097346   4.256999   5.159344
    14  C    6.511304   6.172548   4.907758   3.762440   4.322352
    15  C    5.162230   4.941243   3.784523   2.498909   2.933216
    16  H    4.077321   2.698256   2.172172   3.439190   4.613635
    17  H    1.083671   2.143703   3.416464   3.906187   3.401026
    18  H    2.143544   1.085093   2.153403   3.420011   3.875833
    19  H    2.166495   3.394673   3.893497   3.411432   2.130902
    20  H    5.833330   4.603172   3.418874   3.918620   5.337452
    21  H    8.162821   7.543053   6.154468   5.340922   6.218426
    22  H    7.263967   7.065847   5.865393   4.625467   4.946315
    23  N    6.141755   6.426584   5.608881   4.187576   3.739031
    24  H    6.139317   6.637860   6.012597   4.612776   3.853739
    25  O    4.224178   5.024782   4.814824   3.634971   2.373134
    26  C    3.765334   4.267769   3.803356   2.511721   1.477257
    27  C    4.999465   5.181707   4.333483   2.912220   2.578341
                    6          7          8          9         10
     6  C    0.000000
     7  C    4.245247   0.000000
     8  C    3.771293   2.840324   0.000000
     9  C    4.913936   2.433853   1.421876   0.000000
    10  C    5.076668   1.357727   2.467748   1.434916   0.000000
    11  C    6.180462   3.721018   2.443175   1.410538   2.480134
    12  H    7.066479   4.046862   3.421864   2.155145   2.693967
    13  C    6.511339   4.861402   2.812098   2.427714   3.744427
    14  C    5.712704   5.074565   2.430938   2.806472   4.241353
    15  C    4.323818   4.258442   1.418586   2.450475   3.760843
    16  H    4.859142   1.084632   3.924871   3.421889   2.125236
    17  H    2.155399   4.623520   5.351167   6.161136   5.824893
    18  H    3.392024   2.692308   4.627514   4.869437   4.044752
    19  H    1.083147   5.328184   4.630872   5.869348   6.131157
    20  H    6.135993   2.124092   3.439092   2.170842   1.084710
    21  H    7.580310   5.822234   3.895998   3.410298   4.619820
    22  H    6.322619   6.129881   3.403442   3.889083   5.323919
    23  N    4.899391   6.426102   3.675728   4.855035   6.123923
    24  H    4.798890   6.991538   4.383455   5.668052   6.850803
    25  O    2.826864   6.082498   4.141401   5.563115   6.378564
    26  C    2.473768   4.978533   2.923442   4.344960   5.184208
    27  C    3.852815   5.179868   2.508462   3.806635   4.976183
                   11         12         13         14         15
    11  C    0.000000
    12  H    1.084858   0.000000
    13  C    1.381839   2.145007   0.000000
    14  C    2.410746   3.397147   1.399889   0.000000
    15  C    2.803322   3.888175   2.424302   1.389524   0.000000
    16  H    4.603113   4.745964   5.828675   6.133909   5.343066
    17  H    7.549990   8.261648   8.162518   7.580758   6.221755
    18  H    6.259705   6.713855   7.215308   7.058316   5.894504
    19  H    7.071501   8.005818   7.261004   6.318793   4.942750
    20  H    2.693855   2.451641   4.070934   4.855617   4.618412
    21  H    2.142003   2.474031   1.083924   2.153949   3.401306
    22  H    3.395887   4.298161   2.165205   1.082683   2.129333
    23  N    5.062189   6.126070   4.246691   2.847248   2.406030
    24  H    6.007957   7.083189   5.257059   3.860418   3.261791
    25  O    6.385561   7.449742   6.096229   4.855185   3.688345
    26  C    5.200655   6.255110   5.013751   3.867541   2.589721
    27  C    4.282287   5.367144   3.777701   2.486737   1.479006
                   16         17         18         19         20
    16  H    0.000000
    17  H    4.765957   0.000000
    18  H    2.453057   2.472000   0.000000
    19  H    5.928722   2.500182   4.297062   0.000000
    20  H    2.458291   6.741296   4.744791   7.198504   0.000000
    21  H    6.738864   9.246387   8.254364   8.304550   4.762604
    22  H    7.197053   8.308624   7.999686   6.788139   5.923840
    23  N    7.491425   7.048972   7.491110   5.012972   7.019049
    24  H    8.024723   6.943084   7.721444   4.688321   7.802742
    25  O    6.979707   4.882468   6.090274   2.498532   7.443658
    26  C    5.929726   4.628249   5.352858   2.647709   6.241443
    27  C    6.236279   5.962945   6.236844   4.168461   5.929175
                   21         22         23         24         25
    21  H    0.000000
    22  H    2.493269   0.000000
    23  N    4.892725   2.505660   0.000000
    24  H    5.918679   3.516670   1.025958   0.000000
    25  O    7.002863   4.979531   2.755466   2.227125   0.000000
    26  C    5.976037   4.188585   2.431433   2.391604   1.218444
    27  C    4.639644   2.667790   1.275416   1.875728   2.374613
                   26         27
    26  C    0.000000
    27  C    1.531557   0.000000
 Stoichiometry    C16H9NO
 Framework group  C1[X(C16H9NO)]
 Deg. of freedom    75
 Full point group                 C1      NOp   1
 Largest Abelian subgroup         C1      NOp   1
 Largest concise Abelian subgroup C1      NOp   1
                         Standard orientation:                         
 ---------------------------------------------------------------------
 Center     Atomic      Atomic             Coordinates (Angstroms)
 Number     Number       Type             X           Y           Z
 ---------------------------------------------------------------------
      1          6           0       -3.530678   -0.506518    0.000012
      2          6           0       -2.804388   -1.683679    0.000010
      3          6           0       -1.393201   -1.674042   -0.000003
      4          6           0       -0.709253   -0.428011   -0.000016
      5          6           0       -1.472541    0.768760   -0.000025
      6          6           0       -2.862521    0.721807   -0.000005
      7          6           0       -0.637784   -2.893807   -0.000001
      8          6           0        0.735674   -0.407635   -0.000015
      9          6           0        1.447401   -1.638560   -0.000008
     10          6           0        0.719817   -2.875332   -0.000005
     11          6           0        2.857793   -1.618302    0.000000
     12          1           0        3.395338   -2.560619    0.000004
     13          6           0        3.547740   -0.421033    0.000008
     14          6           0        2.849746    0.792430    0.000008
     15          6           0        1.460358    0.811881   -0.000005
     16          1           0       -1.176230   -3.835350    0.000007
     17          1           0       -4.613990   -0.534419    0.000023
     18          1           0       -3.318053   -2.639491    0.000022
     19          1           0       -3.409677    1.656595   -0.000011
     20          1           0        1.281849   -3.803080    0.000000
     21          1           0        4.631659   -0.417645    0.000016
     22          1           0        3.377980    1.737507    0.000015
     23          7           0        1.354715    3.215590    0.000017
     24          1           0        0.665147    3.975252    0.000000
     25          8           0       -1.399736    3.140777    0.000060
     26          6           0       -0.796398    2.082198   -0.000066
     27          6           0        0.735046    2.100827   -0.000002
 ---------------------------------------------------------------------
 Rotational constants (GHZ):           0.6004071           0.5177219           0.2780036
 Standard basis: 6-311++G(d,p) (5D, 7F)
 There are   477 symmetry adapted cartesian basis functions of A   symmetry.
 There are   459 symmetry adapted basis functions of A   symmetry.
   459 basis functions,   729 primitive gaussians,   477 cartesian basis functions
    60 alpha electrons       60 beta electrons
       nuclear repulsion energy      1181.1379348241 Hartrees.
 NAtoms=   27 NActive=   27 NUniq=   27 SFac= 1.00D+00 NAtFMM=   60 NAOKFM=F Big=F
 Integral buffers will be    131072 words long.
 Raffenetti 2 integral format.
 Two-electron integral symmetry is turned on.
 Force inversion solution in PCM.
 ------------------------------------------------------------------------------
 Polarizable Continuum Model (PCM)
 =================================
 Model                : C-PCM.
 Atomic radii         : UFF (Universal Force Field).
 Polarization charges : Total charges.
 Charge compensation  : None.
 Solution method      : Matrix inversion.
 Cavity type          : Scaled VdW (van der Waals Surface) (Alpha=1.100).
 Cavity algorithm     : GePol (No added spheres)
                        Default sphere list used, NSphG=   27.
                        Lebedev-Laikov grids with approx.  5.0 points / Ang**2.
                        Smoothing algorithm: York/Karplus (Gamma=1.0000).
                        Polarization charges: spherical gaussians, with
                                              point-specific exponents (IZeta= 3).
                        Self-potential: point-specific (ISelfS= 7).
                        Self-field    : sphere-specific E.n sum rule (ISelfD= 2).
 1st derivatives      : Analytical E(r).r(x)/FMM algorithm (CHGder, D1EAlg=3).
                        Cavity 1st derivative terms included.
 2nd derivatives      : Analytical E(r).r(xy)/FMM algorithm (CHGder, D2EAlg=3).
                        Cavity 2nd derivative terms included.
 Solvent              : Ethanol, Eps=  24.852000 Eps(inf)=   1.852593
 ------------------------------------------------------------------------------
 One-electron integrals computed using PRISM.
 NBasis=   459 RedAO= T EigKep=  1.68D-06  NBF=   459
 NBsUse=   449 1.00D-06 EigRej=  8.45D-07 NBFU=   449
 ExpMin= 3.60D-02 ExpMax= 8.59D+03 ExpMxC= 1.30D+03 IAcc=3 IRadAn=         5 AccDes= 0.00D+00
 Harris functional with IExCor=  402 and IRadAn=       5 diagonalized for initial guess.
 HarFok:  IExCor=  402 AccDes= 0.00D+00 IRadAn=         5 IDoV= 1 UseB2=F ITyADJ=14
 ICtDFT=  3500011 ScaDFX=  1.000000  1.000000  1.000000  1.000000
 FoFCou: FMM=F IPFlag=           0 FMFlag=      100000 FMFlg1=           0
         NFxFlg=           0 DoJE=T BraDBF=F KetDBF=T FulRan=T
         wScrn=  0.000000 ICntrl=       500 IOpCl=  0 I1Cent=   200000004 NGrid=           0
         NMat0=    1 NMatS0=      1 NMatT0=    0 NMatD0=    1 NMtDS0=    0 NMtDT0=    0
 Petite list used in FoFCou.
 Requested convergence on RMS density matrix=1.00D-08 within 128 cycles.
 Requested convergence on MAX density matrix=1.00D-06.
 Requested convergence on             energy=1.00D-06.
 No special actions if energy rises.
 Inv3:  Mode=1 IEnd=    13649067.
 Iteration    1 A*A^-1 deviation from unit magnitude is 3.89D-15 for     18.
 Iteration    1 A*A^-1 deviation from orthogonality  is 2.86D-15 for   1826    352.
 Iteration    1 A^-1*A deviation from unit magnitude is 4.00D-15 for     18.
 Iteration    1 A^-1*A deviation from orthogonality  is 1.89D-15 for   1058    443.
 Error on total polarization charges =  0.01721
 SCF Done:  E(RB3LYP) =  -745.317417247     A.U. after   14 cycles
            NFock= 14  Conv=0.83D-08     -V/T= 2.0043
 DoSCS=F DFT=T ScalE2(SS,OS)=  1.000000  1.000000
 Range of M.O.s used for correlation:     1   449
 NBasis=   459 NAE=    60 NBE=    60 NFC=     0 NFV=     0
 NROrb=    449 NOA=    60 NOB=    60 NVA=   389 NVB=   389

 **** Warning!!: The largest alpha MO coefficient is  0.98896385D+02

 NEqPCM:  Using equilibrium solvation (IEInf=0, Eps=  24.8520, EpsInf=   1.8526)
          Differentiating once with respect to electric field.
                with respect to dipole field.
          Electric field/nuclear overlap derivatives assumed to be zero.
          There are     3 degrees of freedom in the 1st order CPHF.  IDoFFX=0 NUNeed=     3.
      3 vectors produced by pass  0 Test12= 7.78D-13 3.33D-08 XBig12= 4.83D+02 1.34D+01.
 AX will form     3 AO Fock derivatives at one time.
      3 vectors produced by pass  1 Test12= 7.78D-13 3.33D-08 XBig12= 1.28D+02 1.84D+00.
      3 vectors produced by pass  2 Test12= 7.78D-13 3.33D-08 XBig12= 1.69D+01 8.89D-01.
      3 vectors produced by pass  3 Test12= 7.78D-13 3.33D-08 XBig12= 8.93D+00 8.86D-01.
      3 vectors produced by pass  4 Test12= 7.78D-13 3.33D-08 XBig12= 3.27D+00 6.50D-01.
      3 vectors produced by pass  5 Test12= 7.78D-13 3.33D-08 XBig12= 1.51D+00 4.55D-01.
      3 vectors produced by pass  6 Test12= 7.78D-13 3.33D-08 XBig12= 3.09D-01 1.79D-01.
      3 vectors produced by pass  7 Test12= 7.78D-13 3.33D-08 XBig12= 1.36D-01 9.46D-02.
      3 vectors produced by pass  8 Test12= 7.78D-13 3.33D-08 XBig12= 1.56D-02 2.87D-02.
      3 vectors produced by pass  9 Test12= 7.78D-13 3.33D-08 XBig12= 4.93D-03 1.24D-02.
      3 vectors produced by pass 10 Test12= 7.78D-13 3.33D-08 XBig12= 6.18D-04 5.16D-03.
      3 vectors produced by pass 11 Test12= 7.78D-13 3.33D-08 XBig12= 1.60D-04 2.78D-03.
      3 vectors produced by pass 12 Test12= 7.78D-13 3.33D-08 XBig12= 2.17D-05 1.27D-03.
      3 vectors produced by pass 13 Test12= 7.78D-13 3.33D-08 XBig12= 2.39D-06 2.92D-04.
      3 vectors produced by pass 14 Test12= 7.78D-13 3.33D-08 XBig12= 7.35D-07 1.47D-04.
      3 vectors produced by pass 15 Test12= 7.78D-13 3.33D-08 XBig12= 8.06D-08 5.07D-05.
      2 vectors produced by pass 16 Test12= 7.78D-13 3.33D-08 XBig12= 2.65D-09 7.10D-06.
      2 vectors produced by pass 17 Test12= 7.78D-13 3.33D-08 XBig12= 8.20D-11 9.58D-07.
      2 vectors produced by pass 18 Test12= 7.78D-13 3.33D-08 XBig12= 3.20D-12 3.37D-07.
      1 vectors produced by pass 19 Test12= 7.78D-13 3.33D-08 XBig12= 1.32D-13 9.74D-08.
 InvSVY:  IOpt=1 It=  1 EMax= 8.88D-15
 Solved reduced A of dimension    55 with     3 vectors.
 End of Minotr F.D. properties file   721 does not exist.
 End of Minotr F.D. properties file   722 does not exist.
 End of Minotr F.D. properties file   788 does not exist.
 Symmetrizing basis deriv contribution to polar:
 IMax=3 JMax=2 DiffMx= 0.00D+00
 G2DrvN: will do    28 centers at a time, making    1 passes.
 PxScal for G2LodP:  IOpCl= 0 ISclPx=1 IMOff=     1 NMtTot=     4 NTT=  105570 ScalPx= 4.19D+01
 Calling FoFCou, ICntrl=  3107 FMM=F I1Cent=   0 AccDes= 0.00D+00.
 PxScal for G2LodP:  IOpCl= 0 ISclPx=0 IMOff=     1 NMtTot=     4 NTT=  105570 ScalPx= 1.00D+00
 NEqPCM:  Using equilibrium solvation (IEInf=0, Eps=  24.8520, EpsInf=   1.8526)
 G2PCM: DoFxE=T DoFxN=T DoGrad=T DoDP/DQ/DG/TGxP=TFFF NFrqRd=   0 IEInf=0 SqF1=F DoCFld=F IF1Alg=4.
 End of G2Drv F.D. properties file   721 does not exist.
 End of G2Drv F.D. properties file   722 does not exist.
 End of G2Drv F.D. properties file   788 does not exist.
          IDoAtm=111111111111111111111111111
 NEqPCM:  Using equilibrium solvation (IEInf=0, Eps=  24.8520, EpsInf=   1.8526)
          Differentiating once with respect to electric field.
                with respect to dipole field.
          Differentiating once with respect to nuclear coordinates.
 CalDSu exits because no D1Ps are significant.
          There are    84 degrees of freedom in the 1st order CPHF.  IDoFFX=5 NUNeed=    84.
 Will reuse    3 saved solutions.
     78 vectors produced by pass  0 Test12= 2.78D-14 1.19D-09 XBig12= 2.76D-01 1.31D-01.
 AX will form    78 AO Fock derivatives at one time.
     78 vectors produced by pass  1 Test12= 2.78D-14 1.19D-09 XBig12= 4.42D-02 6.39D-02.
     78 vectors produced by pass  2 Test12= 2.78D-14 1.19D-09 XBig12= 5.76D-04 4.31D-03.
     78 vectors produced by pass  3 Test12= 2.78D-14 1.19D-09 XBig12= 2.83D-06 1.83D-04.
     78 vectors produced by pass  4 Test12= 2.78D-14 1.19D-09 XBig12= 7.30D-09 1.09D-05.
     78 vectors produced by pass  5 Test12= 2.78D-14 1.19D-09 XBig12= 1.27D-11 3.40D-07.
     41 vectors produced by pass  6 Test12= 2.78D-14 1.19D-09 XBig12= 2.45D-14 1.65D-08.
 InvSVY:  IOpt=1 It=  1 EMax= 1.17D-15
 Solved reduced A of dimension   509 with    84 vectors.
 Isotropic polarizability for W=    0.000000      296.07 Bohr**3.
 End of Minotr F.D. properties file   721 does not exist.
 End of Minotr F.D. properties file   722 does not exist.
 End of Minotr F.D. properties file   788 does not exist.

 **********************************************************************

            Population analysis using the SCF Density.

 **********************************************************************

 Orbital symmetries:
       Occupied  (A) (A) (A) (A) (A) (A) (A) (A) (A) (A) (A) (A)
                 (A) (A) (A) (A) (A) (A) (A) (A) (A) (A) (A) (A)
                 (A) (A) (A) (A) (A) (A) (A) (A) (A) (A) (A) (A)
                 (A) (A) (A) (A) (A) (A) (A) (A) (A) (A) (A) (A)
                 (A) (A) (A) (A) (A) (A) (A) (A) (A) (A) (A) (A)
       Virtual   (A) (A) (A) (A) (A) (A) (A) (A) (A) (A) (A) (A)
                 (A) (A) (A) (A) (A) (A) (A) (A) (A) (A) (A) (A)
                 (A) (A) (A) (A) (A) (A) (A) (A) (A) (A) (A) (A)
                 (A) (A) (A) (A) (A) (A) (A) (A) (A) (A) (A) (A)
                 (A) (A) (A) (A) (A) (A) (A) (A) (A) (A) (A) (A)
                 (A) (A) (A) (A) (A) (A) (A) (A) (A) (A) (A) (A)
                 (A) (A) (A) (A) (A) (A) (A) (A) (A) (A) (A) (A)
                 (A) (A) (A) (A) (A) (A) (A) (A) (A) (A) (A) (A)
                 (A) (A) (A) (A) (A) (A) (A) (A) (A) (A) (A) (A)
                 (A) (A) (A) (A) (A) (A) (A) (A) (A) (A) (A) (A)
                 (A) (A) (A) (A) (A) (A) (A) (A) (A) (A) (A) (A)
                 (A) (A) (A) (A) (A) (A) (A) (A) (A) (A) (A) (A)
                 (A) (A) (A) (A) (A) (A) (A) (A) (A) (A) (A) (A)
                 (A) (A) (A) (A) (A) (A) (A) (A) (A) (A) (A) (A)
                 (A) (A) (A) (A) (A) (A) (A) (A) (A) (A) (A) (A)
                 (A) (A) (A) (A) (A) (A) (A) (A) (A) (A) (A) (A)
                 (A) (A) (A) (A) (A) (A) (A) (A) (A) (A) (A) (A)
                 (A) (A) (A) (A) (A) (A) (A) (A) (A) (A) (A) (A)
                 (A) (A) (A) (A) (A) (A) (A) (A) (A) (A) (A) (A)
                 (A) (A) (A) (A) (A) (A) (A) (A) (A) (A) (A) (A)
                 (A) (A) (A) (A) (A) (A) (A) (A) (A) (A) (A) (A)
                 (A) (A) (A) (A) (A) (A) (A) (A) (A) (A) (A) (A)
                 (A) (A) (A) (A) (A) (A) (A) (A) (A) (A) (A) (A)
                 (A) (A) (A) (A) (A) (A) (A) (A) (A) (A) (A) (A)
                 (A) (A) (A) (A) (A) (A) (A) (A) (A) (A) (A) (A)
                 (A) (A) (A) (A) (A) (A) (A) (A) (A) (A) (A) (A)
                 (A) (A) (A) (A) (A) (A) (A) (A) (A) (A) (A) (A)
                 (A) (A) (A) (A) (A) (A) (A) (A) (A) (A) (A) (A)
                 (A) (A) (A) (A) (A) (A) (A) (A) (A) (A) (A) (A)
                 (A) (A) (A) (A) (A) (A) (A) (A) (A) (A) (A) (A)
                 (A) (A) (A) (A) (A) (A) (A) (A) (A) (A) (A) (A)
                 (A) (A) (A) (A) (A) (A) (A) (A) (A) (A) (A) (A)
                 (A) (A) (A) (A) (A)
 The electronic state is 1-A.
 Alpha  occ. eigenvalues --  -19.13877 -14.32195 -10.28492 -10.24428 -10.21328
 Alpha  occ. eigenvalues --  -10.20901 -10.20657 -10.20457 -10.20455 -10.20402
 Alpha  occ. eigenvalues --  -10.20101 -10.20041 -10.19461 -10.19425 -10.19314
 Alpha  occ. eigenvalues --  -10.19204 -10.19133 -10.19113  -1.07404  -0.93576
 Alpha  occ. eigenvalues --   -0.90860  -0.87331  -0.83499  -0.81147  -0.78343
 Alpha  occ. eigenvalues --   -0.75166  -0.74613  -0.70533  -0.65066  -0.64707
 Alpha  occ. eigenvalues --   -0.63238  -0.60698  -0.56510  -0.55858  -0.53564
 Alpha  occ. eigenvalues --   -0.52350  -0.49656  -0.49412  -0.48549  -0.46260
 Alpha  occ. eigenvalues --   -0.45852  -0.45410  -0.44703  -0.44038  -0.42799
 Alpha  occ. eigenvalues --   -0.41505  -0.41139  -0.39254  -0.39030  -0.38730
 Alpha  occ. eigenvalues --   -0.35872  -0.35430  -0.35187  -0.33145  -0.31308
 Alpha  occ. eigenvalues --   -0.30977  -0.28343  -0.27878  -0.25121  -0.23753
 Alpha virt. eigenvalues --   -0.11971  -0.07254  -0.04869  -0.01648  -0.00640
 Alpha virt. eigenvalues --   -0.00006   0.00259   0.00480   0.01781   0.02249
 Alpha virt. eigenvalues --    0.03006   0.03031   0.03957   0.04140   0.04170
 Alpha virt. eigenvalues --    0.05602   0.06410   0.06588   0.06610   0.06981
 Alpha virt. eigenvalues --    0.07534   0.07551   0.09257   0.09908   0.10033
 Alpha virt. eigenvalues --    0.10037   0.10631   0.10757   0.11278   0.11465
 Alpha virt. eigenvalues --    0.11787   0.12099   0.12446   0.12763   0.12805
 Alpha virt. eigenvalues --    0.13101   0.13410   0.13582   0.13885   0.14397
 Alpha virt. eigenvalues --    0.14715   0.14821   0.15056   0.16699   0.17105
 Alpha virt. eigenvalues --    0.17262   0.17369   0.17446   0.17629   0.17809
 Alpha virt. eigenvalues --    0.18958   0.19487   0.20231   0.20797   0.21140
 Alpha virt. eigenvalues --    0.21693   0.21963   0.22023   0.22325   0.23105
 Alpha virt. eigenvalues --    0.23202   0.23251   0.23495   0.23731   0.24064
 Alpha virt. eigenvalues --    0.24403   0.24884   0.25378   0.25678   0.26326
 Alpha virt. eigenvalues --    0.26546   0.27423   0.27593   0.27985   0.28441
 Alpha virt. eigenvalues --    0.28793   0.29079   0.29382   0.29573   0.30154
 Alpha virt. eigenvalues --    0.30609   0.30819   0.31071   0.31272   0.31598
 Alpha virt. eigenvalues --    0.31776   0.32689   0.33194   0.33287   0.33586
 Alpha virt. eigenvalues --    0.34054   0.35028   0.36200   0.36749   0.36940
 Alpha virt. eigenvalues --    0.38459   0.39742   0.40291   0.41557   0.41855
 Alpha virt. eigenvalues --    0.42818   0.44434   0.46140   0.46849   0.50157
 Alpha virt. eigenvalues --    0.50407   0.51346   0.52243   0.53088   0.53583
 Alpha virt. eigenvalues --    0.54209   0.54357   0.55253   0.55916   0.57085
 Alpha virt. eigenvalues --    0.57862   0.58389   0.58723   0.58852   0.59413
 Alpha virt. eigenvalues --    0.59447   0.59668   0.60199   0.61948   0.62597
 Alpha virt. eigenvalues --    0.62909   0.63465   0.63910   0.64526   0.64769
 Alpha virt. eigenvalues --    0.65450   0.65540   0.66290   0.67008   0.67913
 Alpha virt. eigenvalues --    0.69688   0.71522   0.72165   0.72207   0.72932
 Alpha virt. eigenvalues --    0.73275   0.75082   0.75587   0.75795   0.76678
 Alpha virt. eigenvalues --    0.77102   0.78640   0.80362   0.80756   0.81867
 Alpha virt. eigenvalues --    0.83270   0.84236   0.84561   0.85438   0.85841
 Alpha virt. eigenvalues --    0.88044   0.88350   0.88613   0.89274   0.89506
 Alpha virt. eigenvalues --    0.90191   0.90600   0.91353   0.92151   0.93127
 Alpha virt. eigenvalues --    0.93744   0.94887   0.94904   0.95143   0.96079
 Alpha virt. eigenvalues --    0.97134   0.97369   1.00073   1.00460   1.00481
 Alpha virt. eigenvalues --    1.00623   1.01987   1.02746   1.04067   1.05454
 Alpha virt. eigenvalues --    1.07173   1.07721   1.09078   1.09238   1.09602
 Alpha virt. eigenvalues --    1.10555   1.10659   1.12891   1.13831   1.13980
 Alpha virt. eigenvalues --    1.15873   1.16040   1.20453   1.21465   1.23379
 Alpha virt. eigenvalues --    1.24794   1.29333   1.32380   1.34030   1.34306
 Alpha virt. eigenvalues --    1.35937   1.38135   1.42124   1.43407   1.44456
 Alpha virt. eigenvalues --    1.44888   1.46617   1.46807   1.48093   1.48668
 Alpha virt. eigenvalues --    1.48981   1.49895   1.50370   1.50495   1.53277
 Alpha virt. eigenvalues --    1.55074   1.55545   1.56025   1.58019   1.58376
 Alpha virt. eigenvalues --    1.60057   1.61177   1.61801   1.65781   1.66487
 Alpha virt. eigenvalues --    1.68247   1.69706   1.70094   1.70264   1.72104
 Alpha virt. eigenvalues --    1.72789   1.73268   1.73669   1.74340   1.74573
 Alpha virt. eigenvalues --    1.77888   1.79003   1.80582   1.84447   1.85447
 Alpha virt. eigenvalues --    1.86189   1.87063   1.88368   1.88555   1.88704
 Alpha virt. eigenvalues --    1.89153   1.90403   1.92143   1.93358   1.93834
 Alpha virt. eigenvalues --    1.94856   1.95232   1.95651   1.97204   1.98552
 Alpha virt. eigenvalues --    2.01553   2.01954   2.03610   2.04610   2.05480
 Alpha virt. eigenvalues --    2.06398   2.06500   2.12587   2.13195   2.13900
 Alpha virt. eigenvalues --    2.14265   2.16354   2.18982   2.21198   2.22949
 Alpha virt. eigenvalues --    2.25980   2.28255   2.28409   2.31088   2.31783
 Alpha virt. eigenvalues --    2.34998   2.40497   2.41871   2.43170   2.44721
 Alpha virt. eigenvalues --    2.47626   2.47829   2.48703   2.50056   2.51600
 Alpha virt. eigenvalues --    2.55469   2.55701   2.61305   2.62603   2.65623
 Alpha virt. eigenvalues --    2.65943   2.68043   2.68494   2.70058   2.71490
 Alpha virt. eigenvalues --    2.72027   2.72600   2.73526   2.74477   2.75441
 Alpha virt. eigenvalues --    2.75713   2.76745   2.76975   2.77247   2.77847
 Alpha virt. eigenvalues --    2.78740   2.79629   2.79825   2.81049   2.82721
 Alpha virt. eigenvalues --    2.83594   2.85930   2.86447   2.88289   2.88536
 Alpha virt. eigenvalues --    2.88844   2.89928   2.91560   2.92286   2.92980
 Alpha virt. eigenvalues --    2.93635   3.00840   3.03844   3.04296   3.07413
 Alpha virt. eigenvalues --    3.11048   3.12060   3.18567   3.20125   3.23997
 Alpha virt. eigenvalues --    3.24880   3.25765   3.27414   3.33632   3.34076
 Alpha virt. eigenvalues --    3.37545   3.38047   3.39566   3.40647   3.41390
 Alpha virt. eigenvalues --    3.45234   3.48643   3.52069   3.55183   3.57738
 Alpha virt. eigenvalues --    3.59964   3.63773   3.64113   3.64965   3.71620
 Alpha virt. eigenvalues --    3.81819   3.89646   3.90363   4.01298   4.04858
 Alpha virt. eigenvalues --    4.05646   4.09335   4.11372   4.12943   4.23502
 Alpha virt. eigenvalues --    4.30863   4.42569   4.46008   4.77653   4.81914
 Alpha virt. eigenvalues --    4.82550   4.84480   4.93534   5.04502   5.24758
 Alpha virt. eigenvalues --    5.75817  23.46394  23.70831  23.82408  23.88270
 Alpha virt. eigenvalues --   23.90926  23.91956  23.94421  23.94776  23.96608
 Alpha virt. eigenvalues --   24.00282  24.02674  24.06539  24.07806  24.16496
 Alpha virt. eigenvalues --   24.17194  24.20224  35.69427  50.03857
          Condensed to atoms (all electrons):
               1          2          3          4          5          6
     1  C    6.997880   0.421519  -0.102335  -0.122457  -0.920938   0.750497
     2  C    0.421519   8.113145  -1.343394   0.163458   1.258575  -1.583878
     3  C   -0.102335  -1.343394   9.791746   0.622392  -0.566723   1.046420
     4  C   -0.122457   0.163458   0.622392   6.021722   1.206067  -0.013204
     5  C   -0.920938   1.258575  -0.566723   1.206067  11.733463  -0.410899
     6  C    0.750497  -1.583878   1.046420  -0.013204  -0.410899   8.282172
     7  C   -0.238705  -0.263455  -0.057972  -0.097526  -0.736571  -0.252022
     8  C   -0.494536   0.088813  -0.150543   0.887383  -0.432749  -0.565129
     9  C    0.041908  -0.708180   1.378851  -0.156885  -0.885883  -0.132141
    10  C   -0.204280  -0.193528  -1.504382  -0.124145  -0.607467  -0.050196
    11  C   -0.002156   0.157400  -0.103732  -0.002694  -0.136292  -0.198893
    12  H   -0.000650   0.000255   0.016184   0.011890  -0.001019  -0.002315
    13  C    0.015336  -0.031912  -0.088684  -0.490580   0.060532   0.055901
    14  C    0.037585  -0.187336   0.011579  -0.422907  -0.082329   0.320100
    15  C   -0.047502   0.013989  -0.076701   0.648342  -1.169411  -0.535948
    16  H    0.034488   0.011471  -0.023207   0.005740  -0.022347   0.012169
    17  H    0.459919  -0.070969   0.014057  -0.002995  -0.045671  -0.061170
    18  H   -0.087539   0.453473  -0.087140   0.009167   0.006192  -0.021297
    19  H   -0.140854  -0.001848   0.001352   0.023793   0.080957   0.406129
    20  H   -0.000807  -0.007194  -0.027624  -0.023436  -0.009555   0.004384
    21  H    0.000191  -0.000140   0.000718  -0.011797   0.006072   0.001100
    22  H   -0.001590  -0.001675   0.009432   0.024214  -0.017297  -0.009015
    23  N    0.012688   0.000118  -0.010006  -0.089031  -0.014166   0.044611
    24  H    0.001260   0.002864  -0.008415   0.001849  -0.006217  -0.001606
    25  O    0.058554   0.008257  -0.016814   0.013196  -0.085008   0.085811
    26  C   -0.114678  -0.161810  -1.581044  -0.976578  -0.427268  -0.539985
    27  C   -0.121506   0.093259  -1.562961  -0.929297  -2.284558  -0.634551
               7          8          9         10         11         12
     1  C   -0.238705  -0.494536   0.041908  -0.204280  -0.002156  -0.000650
     2  C   -0.263455   0.088813  -0.708180  -0.193528   0.157400   0.000255
     3  C   -0.057972  -0.150543   1.378851  -1.504382  -0.103732   0.016184
     4  C   -0.097526   0.887383  -0.156885  -0.124145  -0.002694   0.011890
     5  C   -0.736571  -0.432749  -0.885883  -0.607467  -0.136292  -0.001019
     6  C   -0.252022  -0.565129  -0.132141  -0.050196  -0.198893  -0.002315
     7  C    8.618987  -0.336205  -1.109103   2.049255  -0.024641   0.036403
     8  C   -0.336205   7.946772   1.399258  -0.023365  -0.028816   0.001389
     9  C   -1.109103   1.399258  10.836021  -0.285346  -0.062710  -0.058009
    10  C    2.049255  -0.023365  -0.285346   8.340929  -0.112347   0.062982
    11  C   -0.024641  -0.028816  -0.062710  -0.112347   7.386677   0.439777
    12  H    0.036403   0.001389  -0.058009   0.062982   0.439777   0.495699
    13  C   -0.206139  -0.437045  -0.364577  -0.294350   0.645977  -0.079899
    14  C   -0.107566  -0.349464   0.679938  -0.311038  -1.446819  -0.007350
    15  C   -0.806850   4.020813   0.379086  -0.508111   0.352995  -0.017785
    16  H    0.410589  -0.031630  -0.003711  -0.041880  -0.002975   0.000375
    17  H   -0.002806  -0.011774   0.007328  -0.003697  -0.000004   0.000000
    18  H    0.058104   0.016617   0.000676   0.027742  -0.000092   0.000093
    19  H   -0.009439   0.020386   0.001477  -0.001601   0.000107   0.000043
    20  H   -0.050482   0.017669  -0.040048   0.411115   0.013547   0.001373
    21  H   -0.005620  -0.013154  -0.010464  -0.005917  -0.039487  -0.016252
    22  H    0.002154   0.078943   0.038672  -0.008821   0.003311   0.003782
    23  N   -0.004547  -0.214470  -0.064690  -0.003833   0.008141   0.000233
    24  H   -0.000322   0.007933  -0.008360   0.000819   0.001597  -0.000052
    25  O   -0.003445  -0.120420  -0.010736  -0.002900  -0.002167  -0.000038
    26  C   -0.157887  -2.332331  -1.868590  -0.075537  -0.153488  -0.008339
    27  C   -0.325265  -2.786023  -3.380874  -0.141895  -0.522524  -0.044193
              13         14         15         16         17         18
     1  C    0.015336   0.037585  -0.047502   0.034488   0.459919  -0.087539
     2  C   -0.031912  -0.187336   0.013989   0.011471  -0.070969   0.453473
     3  C   -0.088684   0.011579  -0.076701  -0.023207   0.014057  -0.087140
     4  C   -0.490580  -0.422907   0.648342   0.005740  -0.002995   0.009167
     5  C    0.060532  -0.082329  -1.169411  -0.022347  -0.045671   0.006192
     6  C    0.055901   0.320100  -0.535948   0.012169  -0.061170  -0.021297
     7  C   -0.206139  -0.107566  -0.806850   0.410589  -0.002806   0.058104
     8  C   -0.437045  -0.349464   4.020813  -0.031630  -0.011774   0.016617
     9  C   -0.364577   0.679938   0.379086  -0.003711   0.007328   0.000676
    10  C   -0.294350  -0.311038  -0.508111  -0.041880  -0.003697   0.027742
    11  C    0.645977  -1.446819   0.352995  -0.002975  -0.000004  -0.000092
    12  H   -0.079899  -0.007350  -0.017785   0.000375   0.000000   0.000093
    13  C    7.521323   0.698757  -1.887642   0.001120   0.000421  -0.001373
    14  C    0.698757   8.548375  -1.849637   0.003195   0.001038  -0.001713
    15  C   -1.887642  -1.849637  17.971037  -0.016859   0.004881   0.006284
    16  H    0.001120   0.003195  -0.016859   0.496168   0.001163   0.002230
    17  H    0.000421   0.001038   0.004881   0.001163   0.500194  -0.015970
    18  H   -0.001373  -0.001713   0.006284   0.002230  -0.015970   0.488594
    19  H   -0.002390  -0.006698  -0.004906  -0.000191  -0.017574   0.002824
    20  H    0.032103   0.010951  -0.005928  -0.009702  -0.000180   0.000068
    21  H    0.479163  -0.091586  -0.050224  -0.000167   0.000008  -0.000003
    22  H   -0.185442   0.410466   0.215292   0.000023  -0.000010   0.000019
    23  N    0.102141   0.250812  -1.150489  -0.000035   0.000256  -0.000049
    24  H    0.000752  -0.023035   0.110688  -0.000029  -0.000067   0.000011
    25  O    0.007432   0.026672  -0.157733  -0.000019   0.002141  -0.000030
    26  C    0.125229   0.176856  -6.136227   0.001610   0.017545  -0.020644
    27  C    0.598700  -0.126055  -4.372090  -0.006582   0.004501  -0.001628
              19         20         21         22         23         24
     1  C   -0.140854  -0.000807   0.000191  -0.001590   0.012688   0.001260
     2  C   -0.001848  -0.007194  -0.000140  -0.001675   0.000118   0.002864
     3  C    0.001352  -0.027624   0.000718   0.009432  -0.010006  -0.008415
     4  C    0.023793  -0.023436  -0.011797   0.024214  -0.089031   0.001849
     5  C    0.080957  -0.009555   0.006072  -0.017297  -0.014166  -0.006217
     6  C    0.406129   0.004384   0.001100  -0.009015   0.044611  -0.001606
     7  C   -0.009439  -0.050482  -0.005620   0.002154  -0.004547  -0.000322
     8  C    0.020386   0.017669  -0.013154   0.078943  -0.214470   0.007933
     9  C    0.001477  -0.040048  -0.010464   0.038672  -0.064690  -0.008360
    10  C   -0.001601   0.411115  -0.005917  -0.008821  -0.003833   0.000819
    11  C    0.000107   0.013547  -0.039487   0.003311   0.008141   0.001597
    12  H    0.000043   0.001373  -0.016252   0.003782   0.000233  -0.000052
    13  C   -0.002390   0.032103   0.479163  -0.185442   0.102141   0.000752
    14  C   -0.006698   0.010951  -0.091586   0.410466   0.250812  -0.023035
    15  C   -0.004906  -0.005928  -0.050224   0.215292  -1.150489   0.110688
    16  H   -0.000191  -0.009702  -0.000167   0.000023  -0.000035  -0.000029
    17  H   -0.017574  -0.000180   0.000008  -0.000010   0.000256  -0.000067
    18  H    0.002824   0.000068  -0.000003   0.000019  -0.000049   0.000011
    19  H    0.495443  -0.000025  -0.000034   0.000274  -0.002221   0.000467
    20  H   -0.000025   0.498461   0.001085  -0.000359   0.000006   0.000001
    21  H   -0.000034   0.001085   0.502659  -0.018572   0.000702  -0.000175
    22  H    0.000274  -0.000359  -0.018572   0.493619  -0.015045   0.002266
    23  N   -0.002221   0.000006   0.000702  -0.015045   6.876667   0.259880
    24  H    0.000467   0.000001  -0.000175   0.002266   0.259880   0.475911
    25  O   -0.008752  -0.000002   0.000099  -0.001642  -0.008066   0.029015
    26  C   -0.008054   0.000915   0.009511  -0.071830   0.333532  -0.121326
    27  C   -0.004772   0.008913   0.050065  -0.150438   0.932337  -0.002073
              25         26         27
     1  C    0.058554  -0.114678  -0.121506
     2  C    0.008257  -0.161810   0.093259
     3  C   -0.016814  -1.581044  -1.562961
     4  C    0.013196  -0.976578  -0.929297
     5  C   -0.085008  -0.427268  -2.284558
     6  C    0.085811  -0.539985  -0.634551
     7  C   -0.003445  -0.157887  -0.325265
     8  C   -0.120420  -2.332331  -2.786023
     9  C   -0.010736  -1.868590  -3.380874
    10  C   -0.002900  -0.075537  -0.141895
    11  C   -0.002167  -0.153488  -0.522524
    12  H   -0.000038  -0.008339  -0.044193
    13  C    0.007432   0.125229   0.598700
    14  C    0.026672   0.176856  -0.126055
    15  C   -0.157733  -6.136227  -4.372090
    16  H   -0.000019   0.001610  -0.006582
    17  H    0.002141   0.017545   0.004501
    18  H   -0.000030  -0.020644  -0.001628
    19  H   -0.008752  -0.008054  -0.004772
    20  H   -0.000002   0.000915   0.008913
    21  H    0.000099   0.009511   0.050065
    22  H   -0.001642  -0.071830  -0.150438
    23  N   -0.008066   0.333532   0.932337
    24  H    0.029015  -0.121326  -0.002073
    25  O    8.185049   0.850551  -0.527771
    26  C    0.850551  15.733640   4.065676
    27  C   -0.527771   4.065676  19.032479
 Mulliken charges:
               1
     1  C   -0.231292
     2  C   -0.231278
     3  C    0.418944
     4  C   -0.175679
     5  C    0.510509
     6  C    0.002952
     7  C   -0.378924
     8  C   -0.158324
     9  C    0.387092
    10  C   -0.388209
    11  C   -0.169693
    12  H    0.165423
    13  C   -0.274854
    14  C   -0.162792
    15  C    1.070638
    16  H    0.178992
    17  H    0.219436
    18  H    0.165385
    19  H    0.176108
    20  H    0.174750
    21  H    0.212221
    22  H    0.199268
    23  N   -0.245475
    24  H    0.276363
    25  O   -0.321233
    26  C   -0.559450
    27  C   -0.860876
 Sum of Mulliken charges =   0.00000
 Mulliken charges with hydrogens summed into heavy atoms:
               1
     1  C   -0.011856
     2  C   -0.065893
     3  C    0.418944
     4  C   -0.175679
     5  C    0.510509
     6  C    0.179060
     7  C   -0.199932
     8  C   -0.158324
     9  C    0.387092
    10  C   -0.213458
    11  C   -0.004270
    13  C   -0.062633
    14  C    0.036476
    15  C    1.070638
    23  N    0.030888
    25  O   -0.321233
    26  C   -0.559450
    27  C   -0.860876
 APT charges:
               1
     1  C   -0.179698
     2  C    0.145313
     3  C   -0.103202
     4  C    0.185454
     5  C   -0.484821
     6  C    0.021346
     7  C   -0.039188
     8  C    0.069781
     9  C   -0.003224
    10  C   -0.033394
    11  C    0.012986
    12  H    0.047550
    13  C   -0.086968
    14  C   -0.041790
    15  C   -0.243685
    16  H    0.041763
    17  H    0.048790
    18  H    0.051569
    19  H    0.090302
    20  H    0.041725
    21  H    0.045380
    22  H    0.093647
    23  N   -0.797384
    24  H    0.282328
    25  O   -1.101101
    26  C    1.384929
    27  C    0.551591
 Sum of APT charges =   0.00000
 APT charges with hydrogens summed into heavy atoms:
               1
     1  C   -0.130908
     2  C    0.196882
     3  C   -0.103202
     4  C    0.185454
     5  C   -0.484821
     6  C    0.111648
     7  C    0.002575
     8  C    0.069781
     9  C   -0.003224
    10  C    0.008331
    11  C    0.060536
    13  C   -0.041588
    14  C    0.051856
    15  C   -0.243685
    23  N   -0.515056
    25  O   -1.101101
    26  C    1.384929
    27  C    0.551591
 Electronic spatial extent (au):  <R**2>=           3746.7609
 Charge=              0.0000 electrons
 Dipole moment (field-independent basis, Debye):
    X=             -0.8234    Y=             -6.4259    Z=             -0.0002  Tot=              6.4784
 Quadrupole moment (field-independent basis, Debye-Ang):
   XX=            -87.3856   YY=           -105.2856   ZZ=           -107.6002
   XY=              0.0882   XZ=              0.0001   YZ=             -0.0010
 Traceless Quadrupole moment (field-independent basis, Debye-Ang):
   XX=             12.7048   YY=             -5.1951   ZZ=             -7.5097
   XY=              0.0882   XZ=              0.0001   YZ=             -0.0010
 Octapole moment (field-independent basis, Debye-Ang**2):
  XXX=            -15.4415  YYY=            -79.9052  ZZZ=              0.0002  XYY=             -1.8138
  XXY=            -40.2624  XXZ=              0.0002  XZZ=             -3.1020  YZZ=             11.7679
  YYZ=             -0.0023  XYZ=              0.0005
 Hexadecapole moment (field-independent basis, Debye-Ang**3):
 XXXX=          -2352.2949 YYYY=          -2277.4085 ZZZZ=           -122.6608 XXXY=            -26.9723
 XXXZ=             -0.0005 YYYX=              0.6903 YYYZ=             -0.0112 ZZZX=             -0.0002
 ZZZY=             -0.0021 XXYY=           -847.5762 XXZZ=           -530.8173 YYZZ=           -427.6175
 XXYZ=             -0.0033 YYXZ=              0.0004 ZZXY=             -7.0706
 N-N= 1.181137934824D+03 E-N=-4.095402045147D+03  KE= 7.421628557860D+02
  Exact polarizability:     396.157       9.262     366.240       0.000       0.001     125.813
 Approx polarizability:     459.854      10.079     445.071      -0.001       0.001     148.737
 D2PCM: C-PCM CHGder 2nd derivatives, FixD1E=F FixD2E=F DoIter=F DoCFld=F I1PDM=0
 Calling FoFJK, ICntrl=    100127 FMM=F ISym2X=0 I1Cent= 0 IOpClX= 0 NMat=1 NMatS=1 NMatT=0.
 Full mass-weighted force constant matrix:
 Low frequencies ---  -16.7324  -11.7765  -10.4546   -0.0004   -0.0001    0.0008
 Low frequencies ---   28.9710   67.3072  146.8112
 Diagonal vibrational polarizability:
       10.1466790      29.7900022      43.3683198
 Diagonal vibrational hyperpolarizability:
       41.0006745    -577.6575339       0.0308475
 Harmonic frequencies (cm**-1), IR intensities (KM/Mole), Raman scattering
 activities (A**4/AMU), depolarization ratios for plane and unpolarized
 incident light, reduced masses (AMU), force constants (mDyne/A),
 and normal coordinates:
                      1                      2                      3
                      A                      A                      A
 Frequencies --     28.7025                67.2171               146.7901
 Red. masses --      8.6190                 5.3190                 5.6003
 Frc consts  --      0.0042                 0.0142                 0.0711
 IR Inten    --      0.0023                 3.5186                 0.6661
 Raman Activ --      0.5615                 0.8726                 0.4381
 Depolar (P) --      0.7500                 0.7500                 0.7500
 Depolar (U) --      0.8571                 0.8571                 0.8571
  Atom  AN      X      Y      Z        X      Y      Z        X      Y      Z
     1   6     0.00   0.00   0.05     0.00   0.00  -0.25     0.00   0.00  -0.15
     2   6     0.00   0.00   0.10     0.00   0.00  -0.09     0.00   0.00  -0.14
     3   6     0.00   0.00   0.08     0.00   0.00   0.06     0.00   0.00   0.07
     4   6     0.00   0.00   0.03     0.00   0.00   0.04     0.00   0.00   0.24
     5   6     0.00   0.00  -0.04     0.00   0.00  -0.04     0.00   0.00   0.21
     6   6     0.00   0.00  -0.04     0.00   0.00  -0.20     0.00   0.00   0.04
     7   6     0.00   0.00   0.08     0.00   0.00   0.20     0.00   0.00  -0.03
     8   6     0.00   0.00   0.00     0.00   0.00   0.04     0.00   0.00   0.24
     9   6     0.00   0.00  -0.04     0.00   0.00   0.08     0.00   0.00   0.04
    10   6     0.00   0.00   0.01     0.00   0.00   0.21     0.00   0.00  -0.04
    11   6     0.00   0.00  -0.12     0.00   0.00  -0.04     0.00   0.00  -0.17
    12   1     0.00   0.00  -0.17     0.00   0.00  -0.02     0.00   0.00  -0.38
    13   6     0.00   0.00  -0.16     0.00   0.00  -0.21     0.00   0.00  -0.15
    14   6     0.00   0.00  -0.07     0.00   0.00  -0.21     0.00   0.00   0.07
    15   6     0.00   0.00   0.02     0.00   0.00  -0.06     0.00   0.00   0.22
    16   1     0.00   0.00   0.13     0.00   0.00   0.27     0.00   0.00  -0.13
    17   1     0.00   0.00   0.08     0.00   0.00  -0.38     0.00   0.00  -0.33
    18   1     0.00   0.00   0.16     0.00   0.00  -0.10     0.00   0.00  -0.32
    19   1     0.00   0.00  -0.09     0.00   0.00  -0.27     0.00   0.00  -0.02
    20   1     0.00   0.00  -0.01     0.00   0.00   0.30     0.00   0.00  -0.16
    21   1     0.00   0.00  -0.24     0.00   0.00  -0.34     0.00   0.00  -0.32
    22   1     0.00   0.00  -0.09     0.00   0.00  -0.31     0.00   0.00   0.04
    23   7     0.00   0.00   0.53     0.00   0.00   0.10     0.00   0.00  -0.18
    24   1     0.00   0.00   0.52     0.00   0.00   0.16     0.00   0.00  -0.31
    25   8     0.00   0.00  -0.42     0.00   0.00   0.23     0.00   0.00  -0.18
    26   6     0.00   0.00  -0.15     0.00   0.00   0.08     0.00   0.00   0.08
    27   6     0.00   0.00   0.15     0.00   0.00   0.03     0.00   0.00   0.10
                      4                      5                      6
                      A                      A                      A
 Frequencies --    159.0853               228.9306               270.8884
 Red. masses --      4.3113                 3.6255                 4.8448
 Frc consts  --      0.0643                 0.1120                 0.2095
 IR Inten    --      0.0743                 5.3644                 0.5104
 Raman Activ --      0.3264                 1.5330                 1.8019
 Depolar (P) --      0.7500                 0.7500                 0.7500
 Depolar (U) --      0.8571                 0.8571                 0.8571
  Atom  AN      X      Y      Z        X      Y      Z        X      Y      Z
     1   6     0.00   0.00   0.05     0.00   0.00   0.01     0.00   0.00  -0.19
     2   6     0.00   0.00  -0.20     0.00   0.00  -0.18     0.00   0.00  -0.04
     3   6     0.00   0.00  -0.15     0.00   0.00  -0.10     0.00   0.00   0.19
     4   6     0.00   0.00   0.01     0.00   0.00  -0.13     0.00   0.00   0.15
     5   6     0.00   0.00   0.13     0.00   0.00   0.01     0.00   0.00   0.23
     6   6     0.00   0.00   0.22     0.00   0.00   0.18     0.00   0.00   0.08
     7   6     0.00   0.00  -0.14     0.00   0.00   0.18     0.00   0.00   0.13
     8   6     0.00   0.00   0.04     0.00   0.00  -0.13     0.00   0.00  -0.14
     9   6     0.00   0.00   0.16     0.00   0.00  -0.09     0.00   0.00  -0.18
    10   6     0.00   0.00   0.10     0.00   0.00   0.19     0.00   0.00  -0.13
    11   6     0.00   0.00   0.20     0.00   0.00  -0.16     0.00   0.00   0.04
    12   1     0.00   0.00   0.35     0.00   0.00  -0.24     0.00   0.00   0.17
    13   6     0.00   0.00  -0.05     0.00   0.00   0.00     0.00   0.00   0.19
    14   6     0.00   0.00  -0.22     0.00   0.00   0.16     0.00   0.00  -0.07
    15   6     0.00   0.00  -0.09     0.00   0.00   0.00     0.00   0.00  -0.22
    16   1     0.00   0.00  -0.26     0.00   0.00   0.41     0.00   0.00   0.21
    17   1     0.00   0.00   0.08     0.00   0.00   0.04     0.00   0.00  -0.48
    18   1     0.00   0.00  -0.37     0.00   0.00  -0.27     0.00   0.00  -0.19
    19   1     0.00   0.00   0.38     0.00   0.00   0.38     0.00   0.00   0.06
    20   1     0.00   0.00   0.18     0.00   0.00   0.43     0.00   0.00  -0.22
    21   1     0.00   0.00  -0.10     0.00   0.00   0.03     0.00   0.00   0.47
    22   1     0.00   0.00  -0.41     0.00   0.00   0.36     0.00   0.00  -0.04
    23   7     0.00   0.00   0.05     0.00   0.00  -0.01     0.00   0.00   0.05
    24   1     0.00   0.00   0.10     0.00   0.00   0.00     0.00   0.00   0.18
    25   8     0.00   0.00  -0.08     0.00   0.00  -0.03     0.00   0.00  -0.04
    26   6     0.00   0.00   0.02     0.00   0.00   0.00     0.00   0.00   0.05
    27   6     0.00   0.00  -0.03     0.00   0.00   0.01     0.00   0.00  -0.09
                      7                      8                      9
                      A                      A                      A
 Frequencies --    318.2775               339.4877               375.7599
 Red. masses --      6.2908                 4.8904                 7.3490
 Frc consts  --      0.3755                 0.3321                 0.6114
 IR Inten    --      5.2582                10.6571                18.4044
 Raman Activ --      4.0215                 1.7926                22.1692
 Depolar (P) --      0.6992                 0.2163                 0.7481
 Depolar (U) --      0.8229                 0.3556                 0.8559
  Atom  AN      X      Y      Z        X      Y      Z        X      Y      Z
     1   6    -0.04  -0.19   0.00     0.00   0.20   0.00    -0.20   0.00   0.00
     2   6     0.01  -0.16   0.00    -0.11   0.11   0.00    -0.12   0.04   0.00
     3   6     0.00  -0.04   0.00    -0.08  -0.07   0.00    -0.09   0.07   0.00
     4   6    -0.10   0.03   0.00    -0.01  -0.11   0.00    -0.05   0.04   0.00
     5   6    -0.11   0.06   0.00     0.09  -0.06   0.00    -0.16  -0.03   0.00
     6   6    -0.13  -0.11   0.00     0.10   0.12   0.00    -0.19   0.00   0.00
     7   6     0.05  -0.01   0.00    -0.01  -0.05   0.00     0.00   0.13   0.00
     8   6    -0.10   0.00   0.00    -0.02  -0.11   0.00     0.03   0.02   0.00
     9   6    -0.03   0.04   0.00     0.07  -0.05   0.00     0.09   0.07   0.00
    10   6     0.05   0.01   0.00     0.02  -0.04   0.00     0.01   0.12   0.00
    11   6    -0.03   0.11   0.00     0.09   0.15   0.00     0.12   0.07   0.00
    12   1    -0.01   0.12   0.00     0.23   0.23   0.00     0.09   0.05   0.00
    13   6    -0.05   0.12   0.00    -0.02   0.23   0.00     0.19   0.05   0.00
    14   6    -0.11   0.05   0.00    -0.13   0.14   0.00     0.15   0.02   0.00
    15   6    -0.09  -0.04   0.00    -0.11  -0.07   0.00     0.13  -0.06   0.00
    16   1     0.07  -0.02   0.00     0.04  -0.08   0.00     0.06   0.09   0.00
    17   1    -0.04  -0.24   0.00     0.00   0.29   0.00    -0.20  -0.04   0.00
    18   1     0.06  -0.19   0.00    -0.24   0.18   0.00    -0.07   0.01   0.00
    19   1    -0.26  -0.18   0.00     0.23   0.20   0.00    -0.16   0.02   0.00
    20   1     0.08   0.03   0.00    -0.02  -0.07   0.00    -0.05   0.08   0.00
    21   1    -0.05   0.15   0.00    -0.02   0.33   0.00     0.19   0.02   0.00
    22   1    -0.20   0.10   0.00    -0.29   0.22   0.00     0.08   0.06   0.00
    23   7     0.30  -0.19   0.00     0.07  -0.15   0.00    -0.26  -0.09   0.00
    24   1     0.52   0.00   0.00     0.15  -0.08   0.00    -0.48  -0.29   0.00
    25   8     0.21   0.22   0.00    -0.01  -0.11   0.00     0.31  -0.02   0.00
    26   6     0.01   0.11   0.00     0.05  -0.08   0.00     0.02  -0.18   0.00
    27   6     0.03  -0.04   0.00    -0.04  -0.09   0.00     0.00  -0.22   0.00
                     10                     11                     12
                      A                      A                      A
 Frequencies --    399.6362               401.0780               401.9664
 Red. masses --      6.3840                 9.2204                 7.6115
 Frc consts  --      0.6007                 0.8739                 0.7246
 IR Inten    --     25.5102                 3.2471                26.7849
 Raman Activ --      5.3511                14.4221                19.6608
 Depolar (P) --      0.7500                 0.7450                 0.7413
 Depolar (U) --      0.8571                 0.8539                 0.8514
  Atom  AN      X      Y      Z        X      Y      Z        X      Y      Z
     1   6     0.00   0.00  -0.06     0.03  -0.05   0.00    -0.15  -0.03   0.00
     2   6     0.00   0.00   0.12    -0.11  -0.14   0.00    -0.14  -0.03   0.00
     3   6     0.00   0.00  -0.10    -0.10  -0.20   0.00    -0.12   0.02   0.00
     4   6     0.00   0.00  -0.19    -0.06  -0.16   0.00    -0.05  -0.01   0.00
     5   6     0.00   0.00   0.08     0.10  -0.11   0.00    -0.05  -0.09   0.00
     6   6     0.00   0.00  -0.07     0.11  -0.07   0.00    -0.08  -0.07   0.00
     7   6     0.00   0.00   0.05    -0.08  -0.18   0.00    -0.05   0.09   0.00
     8   6     0.00   0.00  -0.20    -0.09   0.10   0.00     0.00   0.12   0.00
     9   6     0.00   0.00  -0.14    -0.17   0.10   0.00    -0.01   0.16   0.00
    10   6     0.00   0.00  -0.01    -0.09   0.03   0.00    -0.05   0.19   0.00
    11   6     0.00   0.00   0.17    -0.18   0.11   0.00     0.00   0.06   0.00
    12   1     0.00   0.00   0.49    -0.20   0.10   0.00    -0.10   0.00   0.00
    13   6     0.00   0.00  -0.06    -0.11   0.06   0.00     0.12  -0.01   0.00
    14   6     0.00   0.00  -0.12    -0.01   0.10   0.00     0.16   0.01   0.00
    15   6     0.00   0.00   0.11     0.01   0.13   0.00     0.13   0.06   0.00
    16   1     0.00   0.00   0.26     0.02  -0.24   0.00     0.05   0.03   0.00
    17   1     0.00   0.00  -0.06     0.03   0.08   0.00    -0.15   0.00   0.00
    18   1     0.00   0.00   0.38    -0.20  -0.09   0.00    -0.10  -0.05   0.00
    19   1     0.00   0.00  -0.04     0.13  -0.06   0.00    -0.04  -0.04   0.00
    20   1     0.00   0.00   0.15     0.06   0.12   0.00    -0.03   0.20   0.00
    21   1     0.00   0.00  -0.04    -0.11  -0.04   0.00     0.13  -0.09   0.00
    22   1     0.00   0.00  -0.15     0.02   0.08   0.00     0.18  -0.01   0.00
    23   7     0.00   0.00  -0.15    -0.05   0.31   0.00     0.34  -0.04   0.00
    24   1     0.00   0.00  -0.12    -0.27   0.11   0.00     0.55   0.14   0.00
    25   8     0.00   0.00  -0.13     0.32  -0.10   0.00    -0.24  -0.28   0.00
    26   6     0.00   0.00   0.30     0.25  -0.12   0.00     0.02  -0.11   0.00
    27   6     0.00   0.00   0.39     0.18   0.16   0.00     0.15   0.05   0.00
                     13                     14                     15
                      A                      A                      A
 Frequencies --    423.2138               490.1824               491.3407
 Red. masses --      3.8862                 7.3760                 3.4846
 Frc consts  --      0.4101                 1.0442                 0.4956
 IR Inten    --      2.8174                 2.0994                 4.1367
 Raman Activ --      5.7656               101.9712                 0.0217
 Depolar (P) --      0.7500                 0.0696                 0.7464
 Depolar (U) --      0.8571                 0.1302                 0.8548
  Atom  AN      X      Y      Z        X      Y      Z        X      Y      Z
     1   6     0.00   0.00   0.04    -0.17  -0.01   0.00     0.00   0.00   0.18
     2   6     0.00   0.00  -0.15    -0.28  -0.09   0.00     0.00   0.00  -0.11
     3   6     0.00   0.00   0.09    -0.19  -0.12   0.00     0.00   0.00  -0.13
     4   6     0.00   0.00  -0.06    -0.05  -0.12   0.00     0.00   0.00   0.14
     5   6     0.00   0.00  -0.21     0.00   0.01   0.00     0.00   0.00  -0.01
     6   6     0.00   0.00   0.11    -0.02  -0.05   0.00     0.00   0.00  -0.15
     7   6     0.00   0.00   0.22    -0.02  -0.07   0.00     0.00   0.00   0.02
     8   6     0.00   0.00   0.11     0.05  -0.12   0.00     0.00   0.00   0.12
     9   6     0.00   0.00  -0.07     0.20  -0.12   0.00     0.00   0.00  -0.14
    10   6     0.00   0.00  -0.21     0.03  -0.07   0.00     0.00   0.00   0.05
    11   6     0.00   0.00   0.10     0.28  -0.09   0.00     0.00   0.00  -0.12
    12   1     0.00   0.00   0.20     0.35  -0.06   0.00     0.00   0.00  -0.15
    13   6     0.00   0.00   0.00     0.17  -0.01   0.00     0.00   0.00   0.19
    14   6     0.00   0.00  -0.10     0.02  -0.06   0.00     0.00   0.00  -0.15
    15   6     0.00   0.00   0.17     0.00   0.01   0.00     0.00   0.00  -0.02
    16   1     0.00   0.00   0.39     0.08  -0.13   0.00     0.00   0.00   0.21
    17   1     0.00   0.00   0.10    -0.17   0.15   0.00     0.00   0.00   0.43
    18   1     0.00   0.00  -0.32    -0.35  -0.06   0.00     0.00   0.00  -0.15
    19   1     0.00   0.00   0.33     0.00  -0.04   0.00     0.00   0.00  -0.34
    20   1     0.00   0.00  -0.42    -0.08  -0.13   0.00     0.00   0.00   0.26
    21   1     0.00   0.00  -0.05     0.17   0.14   0.00     0.00   0.00   0.47
    22   1     0.00   0.00  -0.33     0.02  -0.05   0.00     0.00   0.00  -0.31
    23   7     0.00   0.00  -0.01     0.03   0.22   0.00     0.00   0.00  -0.02
    24   1     0.00   0.00  -0.18     0.02   0.21   0.00     0.00   0.00   0.00
    25   8     0.00   0.00   0.04    -0.05   0.20   0.00     0.00   0.00  -0.01
    26   6     0.00   0.00  -0.10    -0.05   0.19   0.00     0.00   0.00   0.06
    27   6     0.00   0.00   0.06     0.04   0.19   0.00     0.00   0.00   0.07
                     16                     17                     18
                      A                      A                      A
 Frequencies --    508.4365               553.3279               565.1799
 Red. masses --      4.7941                 3.7619                 7.1686
 Frc consts  --      0.7302                 0.6786                 1.3491
 IR Inten    --      3.1979                 0.0331                 1.9935
 Raman Activ --      1.1985                 0.2582                31.8450
 Depolar (P) --      0.7410                 0.7500                 0.0472
 Depolar (U) --      0.8512                 0.8571                 0.0902
  Atom  AN      X      Y      Z        X      Y      Z        X      Y      Z
     1   6     0.02   0.13   0.00     0.00   0.00  -0.16     0.06  -0.08   0.00
     2   6    -0.02   0.05   0.00     0.00   0.00   0.15    -0.09  -0.11   0.00
     3   6     0.01  -0.15   0.00     0.00   0.00  -0.17    -0.10   0.12   0.00
     4   6    -0.13  -0.05   0.00     0.00   0.00  -0.22     0.04  -0.02   0.00
     5   6    -0.07   0.02   0.00     0.00   0.00   0.11     0.18  -0.03   0.00
     6   6    -0.06   0.17   0.00     0.00   0.00   0.08     0.23  -0.16   0.00
     7   6     0.25  -0.10   0.00     0.00   0.00   0.05     0.01   0.32   0.00
     8   6    -0.13   0.05   0.00     0.00   0.00   0.23    -0.04  -0.02   0.00
     9   6     0.00   0.15   0.00     0.00   0.00   0.03     0.10   0.11   0.00
    10   6     0.24   0.11   0.00     0.00   0.00  -0.04    -0.01   0.32   0.00
    11   6    -0.02  -0.05   0.00     0.00   0.00  -0.09     0.09  -0.11   0.00
    12   1    -0.20  -0.15   0.00     0.00   0.00  -0.34     0.01  -0.15   0.00
    13   6     0.03  -0.13   0.00     0.00   0.00   0.13    -0.06  -0.08   0.00
    14   6    -0.06  -0.17   0.00     0.00   0.00  -0.09    -0.24  -0.16   0.00
    15   6    -0.07  -0.02   0.00     0.00   0.00   0.05    -0.18  -0.04   0.00
    16   1     0.43  -0.20   0.00     0.00   0.00   0.25     0.11   0.27   0.00
    17   1     0.02   0.09   0.00     0.00   0.00  -0.20     0.05   0.15   0.00
    18   1    -0.19   0.14   0.00     0.00   0.00   0.55     0.00  -0.16   0.00
    19   1    -0.04   0.18   0.00     0.00   0.00   0.23     0.24  -0.15   0.00
    20   1     0.43   0.22   0.00     0.00   0.00  -0.01    -0.12   0.25   0.00
    21   1     0.03  -0.09   0.00     0.00   0.00   0.15    -0.06   0.15   0.00
    22   1    -0.03  -0.18   0.00     0.00   0.00  -0.38    -0.25  -0.16   0.00
    23   7    -0.01   0.00   0.00     0.00   0.00   0.04    -0.05  -0.03   0.00
    24   1    -0.01   0.00   0.00     0.00   0.00  -0.01    -0.06  -0.04   0.00
    25   8    -0.01  -0.01   0.00     0.00   0.00   0.00     0.05  -0.02   0.00
    26   6    -0.01  -0.01   0.00     0.00   0.00   0.00     0.07  -0.01   0.00
    27   6    -0.01   0.00   0.00     0.00   0.00  -0.11    -0.06  -0.01   0.00
                     19                     20                     21
                      A                      A                      A
 Frequencies --    578.4060               604.7323               608.4769
 Red. masses --      4.2554                 3.9056                 6.9164
 Frc consts  --      0.8388                 0.8415                 1.5088
 IR Inten    --      5.9003                 4.9640                 0.0951
 Raman Activ --      1.3008                 0.5568                 5.4031
 Depolar (P) --      0.7500                 0.7500                 0.7472
 Depolar (U) --      0.8571                 0.8571                 0.8553
  Atom  AN      X      Y      Z        X      Y      Z        X      Y      Z
     1   6     0.00   0.00   0.04     0.00   0.00  -0.11    -0.13  -0.02   0.00
     2   6     0.00   0.00   0.01     0.00   0.00   0.09     0.10   0.11   0.00
     3   6     0.00   0.00  -0.16     0.00   0.00   0.11     0.09   0.14   0.00
     4   6     0.00   0.00   0.08     0.00   0.00   0.08    -0.02   0.08   0.00
     5   6     0.00   0.00   0.22     0.00   0.00  -0.12    -0.14  -0.01   0.00
     6   6     0.00   0.00  -0.07     0.00   0.00   0.13    -0.22   0.05   0.00
     7   6     0.00   0.00   0.02     0.00   0.00  -0.19     0.08   0.13   0.00
     8   6     0.00   0.00  -0.05     0.00   0.00  -0.07    -0.02  -0.08   0.00
     9   6     0.00   0.00  -0.20     0.00   0.00  -0.17     0.09  -0.14   0.00
    10   6     0.00   0.00  -0.03     0.00   0.00   0.18     0.08  -0.14   0.00
    11   6     0.00   0.00   0.15     0.00   0.00  -0.07     0.10  -0.10   0.00
    12   1     0.00   0.00   0.42     0.00   0.00   0.09     0.23  -0.03   0.00
    13   6     0.00   0.00  -0.12     0.00   0.00   0.09    -0.13   0.02   0.00
    14   6     0.00   0.00   0.06     0.00   0.00  -0.12    -0.21  -0.05   0.00
    15   6     0.00   0.00   0.22     0.00   0.00   0.19    -0.13   0.00   0.00
    16   1     0.00   0.00   0.38     0.00   0.00  -0.33    -0.07   0.21   0.00
    17   1     0.00   0.00   0.02     0.00   0.00  -0.33    -0.13  -0.24   0.00
    18   1     0.00   0.00   0.08     0.00   0.00   0.00     0.23   0.04   0.00
    19   1     0.00   0.00  -0.39     0.00   0.00   0.25    -0.23   0.04   0.00
    20   1     0.00   0.00   0.32     0.00   0.00   0.44    -0.06  -0.22   0.00
    21   1     0.00   0.00  -0.26     0.00   0.00   0.27    -0.13   0.23   0.00
    22   1     0.00   0.00  -0.08     0.00   0.00  -0.31    -0.22  -0.05   0.00
    23   7     0.00   0.00   0.07     0.00   0.00   0.00     0.09   0.22   0.00
    24   1     0.00   0.00  -0.21     0.00   0.00  -0.31     0.03   0.17   0.00
    25   8     0.00   0.00   0.06     0.00   0.00   0.04     0.09  -0.21   0.00
    26   6     0.00   0.00  -0.15     0.00   0.00  -0.15     0.13  -0.14   0.00
    27   6     0.00   0.00  -0.20     0.00   0.00   0.07     0.13   0.15   0.00
                     22                     23                     24
                      A                      A                      A
 Frequencies --    678.3107               719.9523               729.4994
 Red. masses --      6.8008                 2.9304                 6.1704
 Frc consts  --      1.8436                 0.8949                 1.9347
 IR Inten    --      2.4665                93.4772                 4.0386
 Raman Activ --     10.9897                 0.0243                12.4535
 Depolar (P) --      0.7266                 0.7500                 0.7498
 Depolar (U) --      0.8417                 0.8571                 0.8570
  Atom  AN      X      Y      Z        X      Y      Z        X      Y      Z
     1   6     0.26  -0.05   0.00     0.00   0.00  -0.12    -0.15   0.00   0.00
     2   6     0.05  -0.16   0.00     0.00   0.00   0.05    -0.21  -0.06   0.00
     3   6    -0.05   0.03   0.00     0.00   0.00  -0.13    -0.07   0.10   0.00
     4   6    -0.22   0.10   0.00     0.00   0.00   0.19    -0.01   0.07   0.00
     5   6    -0.01   0.20   0.00     0.00   0.00  -0.16     0.09   0.07   0.00
     6   6     0.01   0.10   0.00     0.00   0.00   0.07     0.10  -0.09   0.00
     7   6    -0.06   0.07   0.00     0.00   0.00  -0.02     0.25   0.19   0.00
     8   6    -0.22  -0.10   0.00     0.00   0.00   0.16    -0.01  -0.07   0.00
     9   6    -0.05  -0.02   0.00     0.00   0.00  -0.11    -0.07  -0.10   0.00
    10   6    -0.05  -0.07   0.00     0.00   0.00  -0.03     0.25  -0.19   0.00
    11   6     0.04   0.17   0.00     0.00   0.00   0.06    -0.21   0.07   0.00
    12   1    -0.02   0.13   0.00     0.00   0.00   0.36    -0.17   0.10   0.00
    13   6     0.26   0.06   0.00     0.00   0.00  -0.11    -0.15   0.00   0.00
    14   6     0.02  -0.10   0.00     0.00   0.00   0.06     0.10   0.09   0.00
    15   6    -0.01  -0.21   0.00     0.00   0.00  -0.14     0.09  -0.07   0.00
    16   1    -0.16   0.13   0.00     0.00   0.00   0.27     0.20   0.22   0.00
    17   1     0.26  -0.05   0.00     0.00   0.00   0.15    -0.16   0.27   0.00
    18   1    -0.01  -0.12   0.00     0.00   0.00   0.38    -0.16  -0.10   0.00
    19   1    -0.24  -0.05   0.00     0.00   0.00   0.43     0.14  -0.07   0.00
    20   1    -0.16  -0.13   0.00     0.00   0.00   0.26     0.20  -0.22   0.00
    21   1     0.26   0.05   0.00     0.00   0.00   0.11    -0.15  -0.27   0.00
    22   1    -0.24   0.05   0.00     0.00   0.00   0.39     0.13   0.07   0.00
    23   7    -0.05   0.09   0.00     0.00   0.00  -0.02    -0.03   0.01   0.00
    24   1    -0.29  -0.12   0.00     0.00   0.00   0.21    -0.17  -0.11   0.00
    25   8    -0.11  -0.08   0.00     0.00   0.00  -0.01    -0.07   0.00   0.00
    26   6     0.13   0.06   0.00     0.00   0.00   0.04     0.06   0.06   0.00
    27   6     0.16  -0.05   0.00     0.00   0.00   0.02     0.08  -0.06   0.00
                     25                     26                     27
                      A                      A                      A
 Frequencies --    757.4998               775.3520               784.2138
 Red. masses --      3.9841                 2.5957                 1.2681
 Frc consts  --      1.3469                 0.9194                 0.4595
 IR Inten    --      3.6156                 5.0133                12.1806
 Raman Activ --      0.9106                 8.7469                 0.3275
 Depolar (P) --      0.7500                 0.7500                 0.7500
 Depolar (U) --      0.8571                 0.8571                 0.8571
  Atom  AN      X      Y      Z        X      Y      Z        X      Y      Z
     1   6     0.00   0.00   0.09     0.00   0.00  -0.03     0.00   0.00   0.04
     2   6     0.00   0.00  -0.02     0.00   0.00  -0.04     0.00   0.00   0.05
     3   6     0.00   0.00   0.20     0.00   0.00   0.08     0.00   0.00   0.00
     4   6     0.00   0.00  -0.26     0.00   0.00   0.03     0.00   0.00   0.00
     5   6     0.00   0.00   0.04     0.00   0.00  -0.09     0.00   0.00  -0.04
     6   6     0.00   0.00  -0.04     0.00   0.00  -0.04     0.00   0.00   0.04
     7   6     0.00   0.00  -0.09     0.00   0.00  -0.03     0.00   0.00  -0.06
     8   6     0.00   0.00   0.26     0.00   0.00  -0.05     0.00   0.00   0.01
     9   6     0.00   0.00  -0.21     0.00   0.00  -0.07     0.00   0.00   0.01
    10   6     0.00   0.00   0.09     0.00   0.00   0.02     0.00   0.00  -0.06
    11   6     0.00   0.00   0.02     0.00   0.00   0.04     0.00   0.00   0.05
    12   1     0.00   0.00   0.49     0.00   0.00  -0.27     0.00   0.00  -0.34
    13   6     0.00   0.00  -0.10     0.00   0.00   0.05     0.00   0.00   0.03
    14   6     0.00   0.00   0.04     0.00   0.00   0.04     0.00   0.00   0.03
    15   6     0.00   0.00  -0.05     0.00   0.00   0.10     0.00   0.00  -0.05
    16   1     0.00   0.00  -0.14     0.00   0.00  -0.06     0.00   0.00   0.45
    17   1     0.00   0.00  -0.24     0.00   0.00   0.33     0.00   0.00  -0.41
    18   1     0.00   0.00  -0.42     0.00   0.00   0.13     0.00   0.00  -0.34
    19   1     0.00   0.00  -0.18     0.00   0.00   0.36     0.00   0.00  -0.22
    20   1     0.00   0.00   0.14     0.00   0.00   0.12     0.00   0.00   0.43
    21   1     0.00   0.00   0.27     0.00   0.00  -0.43     0.00   0.00  -0.34
    22   1     0.00   0.00   0.23     0.00   0.00  -0.47     0.00   0.00  -0.15
    23   7     0.00   0.00   0.00     0.00   0.00   0.02     0.00   0.00  -0.01
    24   1     0.00   0.00   0.23     0.00   0.00   0.33     0.00   0.00   0.07
    25   8     0.00   0.00  -0.02     0.00   0.00  -0.06     0.00   0.00   0.00
    26   6     0.00   0.00   0.08     0.00   0.00   0.23     0.00   0.00   0.00
    27   6     0.00   0.00  -0.07     0.00   0.00  -0.20     0.00   0.00   0.04
                     28                     29                     30
                      A                      A                      A
 Frequencies --    798.7646               830.2424               853.8202
 Red. masses --      5.9243                 2.1050                 1.6622
 Frc consts  --      2.2270                 0.8549                 0.7139
 IR Inten    --      7.9440                 2.5139               115.9335
 Raman Activ --     13.5893                 7.3934                 1.3977
 Depolar (P) --      0.1010                 0.7500                 0.7500
 Depolar (U) --      0.1834                 0.8571                 0.8571
  Atom  AN      X      Y      Z        X      Y      Z        X      Y      Z
     1   6     0.25   0.00   0.00     0.00   0.00  -0.05     0.00   0.00  -0.02
     2   6    -0.10  -0.23   0.00     0.00   0.00  -0.08     0.00   0.00  -0.04
     3   6    -0.11  -0.06   0.00     0.00   0.00   0.09     0.00   0.00   0.10
     4   6    -0.10   0.05   0.00     0.00   0.00  -0.05     0.00   0.00  -0.03
     5   6    -0.07   0.13   0.00     0.00   0.00   0.10     0.00   0.00   0.04
     6   6    -0.07   0.19   0.00     0.00   0.00  -0.06     0.00   0.00  -0.05
     7   6     0.01   0.06   0.00     0.00   0.00  -0.03     0.00   0.00  -0.09
     8   6     0.09   0.05   0.00     0.00   0.00   0.06     0.00   0.00  -0.03
     9   6     0.10  -0.07   0.00     0.00   0.00  -0.09     0.00   0.00   0.11
    10   6     0.00   0.03   0.00     0.00   0.00   0.02     0.00   0.00  -0.09
    11   6     0.09  -0.22   0.00     0.00   0.00   0.08     0.00   0.00  -0.05
    12   1     0.29  -0.11   0.00     0.00   0.00  -0.35     0.00   0.00   0.12
    13   6    -0.24  -0.01   0.00     0.00   0.00   0.04     0.00   0.00  -0.03
    14   6     0.07   0.19   0.00     0.00   0.00   0.05     0.00   0.00  -0.06
    15   6     0.07   0.14   0.00     0.00   0.00  -0.12     0.00   0.00   0.05
    16   1     0.10   0.01   0.00     0.00   0.00  -0.05     0.00   0.00   0.54
    17   1     0.25   0.05   0.00     0.00   0.00   0.52     0.00   0.00   0.32
    18   1    -0.30  -0.13   0.00     0.00   0.00   0.35     0.00   0.00   0.07
    19   1    -0.32   0.04   0.00     0.00   0.00   0.27     0.00   0.00   0.26
    20   1    -0.10  -0.03   0.00     0.00   0.00   0.13     0.00   0.00   0.51
    21   1    -0.24   0.03   0.00     0.00   0.00  -0.46     0.00   0.00   0.35
    22   1     0.32   0.05   0.00     0.00   0.00  -0.18     0.00   0.00   0.26
    23   7    -0.01  -0.07   0.00     0.00   0.00  -0.01     0.00   0.00   0.01
    24   1     0.06  -0.01   0.00     0.00   0.00  -0.22     0.00   0.00  -0.10
    25   8     0.01  -0.07   0.00     0.00   0.00   0.03     0.00   0.00   0.00
    26   6     0.04  -0.04   0.00     0.00   0.00  -0.13     0.00   0.00   0.00
    27   6    -0.05  -0.03   0.00     0.00   0.00   0.12     0.00   0.00  -0.02
                     31                     32                     33
                      A                      A                      A
[...]
 0001812,0.,0.00000216,0.00117659,-0.00000004,0.00074560,-0.00081295,-0
 .00000004,-0.13353278,0.28035785,-0.00000041,0.00000002,0.00500687,-0.
 00000005,0.00000026,0.00675259,0.00000012,0.00000010,-0.00109607,0.000
 00033,-0.00000007,0.00736418,-0.00000039,-0.00000010,0.00380709,0.0000
 0002,0.00000188,-0.03972514,-0.00000004,0.00000001,-0.00080707,-0.0000
 0005,0.,0.00055380,0.00000001,-0.00000003,-0.00048739,0.00000003,0.000
 00004,0.00016421,0.00000001,0.,-0.00006048,0.,0.,-0.00002604,0.,-0.000
 00001,0.00001568,0.,0.,-0.00003021,0.00000001,-0.00000001,0.00018996,0
 .,0.,0.00001421,-0.00000004,-0.00000006,-0.00373116,-0.00000003,0.0000
 0003,-0.00038452,0.00000034,-0.00000199,0.02617940,-0.00053155,0.00009
 384,0.,0.00002966,0.00144534,0.,-0.00476694,-0.00212556,0.00000004,-0.
 00043827,-0.00026999,0.,0.00037007,0.00017442,-0.00000002,-0.00019957,
 -0.00013862,0.,-0.01236007,0.02888663,-0.00000013,-0.00167600,-0.00273
 089,0.,0.01004681,-0.01436149,0.00000009,-0.13140940,0.12184548,-0.000
 00066,0.00116335,-0.00122007,0.00000001,-0.00016485,0.00036037,0.,0.00
 009272,0.00037256,0.,0.00021306,-0.00008995,0.,0.00052375,-0.00064159,
 0.,0.00119940,-0.00023699,0.,-0.00009088,0.00014025,0.,-0.00000427,-0.
 00005685,0.,0.00000013,0.00001514,0.,0.13827284,0.00005463,0.00006513,
 0.,-0.00003984,0.00002248,0.,-0.00109775,0.00155904,0.00000007,-0.0006
 4408,0.00013729,-0.00000001,0.00013660,-0.00002424,0.,-0.00002398,-0.0
 0003698,0.,-0.00254008,0.00445922,0.,-0.00395027,-0.00231404,0.,0.0151
 2626,-0.01909907,0.00000013,0.12248069,-0.26148058,0.00000113,0.001851
 94,0.00127734,0.,-0.00096924,0.00038141,-0.00000001,-0.00026118,0.0000
 2467,0.,-0.00007364,0.00011691,0.,0.00136833,-0.00074024,0.,0.00024380
 ,0.00081408,-0.00000004,-0.00000191,0.00000271,0.,0.00000810,0.0000004
 7,0.,0.00002058,-0.00000731,0.,-0.13124480,0.27514926,-0.00000001,-0.0
 0000001,-0.00078835,-0.00000001,0.00000001,0.00014236,0.00000008,0.000
 00010,0.00976704,-0.00000002,-0.00000003,-0.00074440,0.00000001,0.,-0.
 00082571,0.,0.,0.00014466,0.00000014,-0.00000008,0.00484523,-0.0000000
 3,0.00000002,0.00399429,-0.00000004,0.00000009,0.00261804,-0.00000075,
 0.00000121,-0.03727951,-0.00000001,-0.00000003,-0.00201016,0.,0.,0.000
 13996,0.,0.00000002,-0.00009922,0.00000001,0.,-0.00002490,0.,0.,0.0002
 1138,-0.00000003,-0.00000004,-0.00578888,0.,0.,-0.00000090,0.,0.,0.000
 19311,0.,0.,0.00008984,0.00000067,-0.00000127,0.02522486,-0.00002434,0
 .00001284,0.,0.00002045,0.00000957,0.,-0.00000389,-0.00008818,0.,0.000
 05382,-0.00000631,0.,-0.00006983,-0.00000684,0.00000001,-0.00001386,0.
 00001970,0.,-0.00013441,-0.00034774,0.,0.00048408,-0.00004520,0.,0.001
 03120,-0.00258233,-0.00000006,-0.00058881,0.00048615,0.,-0.01115492,0.
 00229817,-0.00000011,0.00084904,-0.00007121,0.00000004,-0.33728113,-0.
 00112643,-0.00000220,-0.01090991,-0.00219385,-0.00000012,0.00071660,0.
 00279772,0.,-0.00009059,-0.00000154,0.,-0.00001505,-0.00000019,0.,-0.0
 0000721,-0.00001121,0.,-0.00000584,0.00000576,0.,0.00001902,-0.0000333
 0,0.,0.35678790,-0.00000262,-0.00004051,0.,-0.00005061,0.00006267,0.,0
 .00017294,-0.00021236,0.,0.00024344,0.00019561,0.,-0.00002474,0.000110
 39,-0.00000002,0.00001050,0.00006408,0.,-0.00033847,-0.00033256,0.,-0.
 00026175,-0.00101188,0.,-0.00197104,-0.00455902,-0.00000003,-0.0009891
 3,0.00067187,-0.00000001,-0.02882854,0.00389348,-0.00000022,0.00055873
 ,0.00111175,0.00000001,-0.00076075,-0.05875186,-0.00000007,0.02865254,
 0.00364650,0.00000023,0.00209379,-0.00443463,-0.00000010,-0.00014333,-
 0.00000063,0.,0.00000021,0.00000522,0.,0.00000443,-0.00000096,0.,-0.00
 000695,-0.00000361,0.,0.00003377,-0.00002120,0.,0.00102971,0.05835195,
 0.,-0.00000004,0.00000991,-0.00000003,0.00000002,0.00005395,0.00000003
 ,0.00000002,0.00014836,-0.00000005,0.,-0.00094764,-0.00000004,-0.00000
 004,0.00001577,0.00000003,0.00000002,0.00009298,0.,0.,-0.00049032,0.00
 000004,-0.00000002,-0.00095636,-0.00000007,-0.00000004,0.00836604,-0.0
 0000001,0.,0.00012682,-0.00000020,0.00000004,0.00385122,0.00000005,0.,
 -0.00454674,-0.00000221,-0.00000004,-0.03822685,0.,-0.00000003,0.00333
 430,-0.00000004,0.00000003,0.00658115,0.,0.,0.00000052,0.,0.,-0.000019
 82,0.,0.,-0.00000583,0.,0.,0.00000440,0.,0.,0.00008939,0.00000243,0.00
 000011,0.02611799,-0.00002465,-0.00000430,0.,-0.00003983,-0.00015039,0
 .,-0.00045037,0.00008001,0.,0.00007702,-0.00162634,0.,0.00019678,0.000
 10241,-0.00000002,-0.00001168,0.00009574,0.,-0.00012440,0.00011901,0.,
 -0.00522710,0.00192593,-0.00000011,-0.00062430,0.00048219,-0.00000001,
 0.00027655,0.00002158,0.00000002,-0.00115503,0.00320718,-0.00000005,0.
 00040149,0.00078416,0.,0.01179678,0.01552244,0.00000014,-0.12713892,-0
 .12046275,-0.00000113,-0.01165837,-0.02871573,-0.00000016,-0.00000063,
 -0.00002048,0.,-0.00000520,0.00000760,0.,-0.00005877,-0.00000783,0.,-0
 .00003090,-0.00000077,0.,-0.00002038,-0.00006628,0.,0.00083489,-0.0007
 0178,0.00000003,0.13169271,-0.00002829,0.00004235,0.,0.00005851,-0.000
 01266,0.,-0.00007750,0.00012113,0.,-0.00003097,0.00022204,0.,-0.000094
 53,-0.00013546,0.,-0.00002805,-0.00005305,0.,0.00010213,-0.00003362,0.
 ,0.00127365,0.00099113,-0.00000001,0.00064370,0.00019411,0.,-0.0001613
 2,-0.00005919,0.,0.00346758,-0.00245962,-0.00000002,-0.00069623,-0.000
 80532,0.,-0.01401119,-0.01644211,-0.00000022,-0.12251004,-0.27087360,-
 0.00000159,-0.00102934,0.00434690,0.,-0.00001374,-0.00000743,0.,-0.000
 00427,-0.00000254,0.,0.00000245,-0.00000141,0.,-0.00000133,0.00000445,
 0.,0.00002718,0.00001916,0.,0.00000211,0.00115972,0.00000001,0.1309222
 0,0.28595327,0.,0.,0.00002143,0.,0.,-0.00005480,-0.00000001,0.00000002
 ,-0.00052071,-0.00000006,-0.00000004,0.00041246,0.,0.,0.00016772,0.,0.
 ,-0.00003061,0.00000002,0.,0.00016404,-0.00000006,0.00000003,0.0076240
 5,0.00000002,0.00000003,-0.00103876,0.,-0.00000002,-0.00081509,-0.0000
 0002,-0.00000002,0.00659957,0.,0.,-0.00021967,-0.00000004,0.00000005,0
 .00453080,-0.00000081,-0.00000158,-0.03983959,-0.00000047,-0.00000011,
 0.00419865,0.,0.,0.00008359,0.,0.,0.00000244,0.,0.,-0.00001573,0.,0.,0
 .00000568,0.,0.,0.00001419,0.00000004,0.00000002,-0.00368223,0.0000012
 8,0.00000180,0.02587671,-0.00065497,-0.00065518,-0.00000010,-0.0004090
 9,0.00003554,0.,0.00000719,-0.00009882,0.00000005,-0.00185200,0.000921
 60,-0.00000006,-0.01062270,0.00201426,0.00000044,0.00082919,-0.0028666
 6,0.00000018,0.00005227,0.00014036,-0.00000002,-0.00153195,0.00384639,
 0.00000007,0.00032402,0.00098266,-0.00000004,-0.00022880,-0.00000471,0
 .00000001,0.00096959,0.00185512,0.00000004,0.00007320,0.00008415,0.,0.
 00175486,-0.00240996,-0.00000008,-0.00672070,0.00428228,-0.00000004,0.
 02322058,0.00667321,0.00000062,0.00002727,-0.00007968,0.,-0.00024668,-
 0.00032746,0.,0.00001867,-0.00008141,0.00000002,0.00024729,0.00020328,
 0.00000003,0.00007407,0.00007442,0.,0.00005603,-0.00015951,0.00000002,
 0.00009168,0.00234255,0.00000004,0.45531540,-0.00048523,0.00162896,-0.
 00000009,0.00153413,-0.00027544,0.00000002,-0.00188390,0.00019979,0.00
 000005,-0.00048188,0.00066756,0.00000010,-0.00157953,0.00301945,-0.000
 00004,-0.00148999,-0.00113153,0.00000013,0.00073341,-0.00079328,-0.000
 00002,0.01112470,0.00290703,-0.00000006,0.00256853,-0.00248604,0.00000
 003,-0.00047967,-0.00015623,-0.00000001,0.00014024,-0.00079092,0.,-0.0
 0001342,-0.00028397,-0.00000001,-0.00189763,-0.00360333,0.00000002,-0.
 00902517,0.00017535,-0.00000048,-0.00099490,-0.06433932,0.00000008,-0.
 00016251,-0.00006829,0.,-0.00011112,-0.00002846,0.,-0.00006419,-0.0000
 9049,0.,-0.00014584,-0.00000903,0.,-0.00005176,-0.00034751,0.,0.000451
 88,-0.00016530,0.00000003,-0.00044190,-0.00033016,0.00000003,0.0392608
 2,0.75244768,-0.00000004,0.00000006,0.00082689,0.00000005,0.,-0.000072
 77,-0.00000003,0.,0.00028200,0.00000001,0.00000021,-0.00089736,-0.0000
 0100,0.00000013,-0.00315357,-0.00000005,-0.00000022,-0.00063009,0.0000
 0003,0.,0.00012300,-0.00000004,0.00000024,0.00194281,0.00000012,-0.000
 00006,0.00046730,-0.00000003,-0.00000002,-0.00009713,-0.00000011,-0.00
 000008,-0.00040861,0.,0.,0.00025508,0.00000003,0.00000020,-0.00054670,
 -0.00000004,-0.00000021,0.00117431,0.00000098,-0.00000042,-0.00461846,
 0.,0.,-0.00000054,0.,0.,-0.00007848,0.,0.,-0.00011645,-0.00000001,0.,-
 0.00008747,0.,0.,-0.00000270,0.00000002,-0.00000002,0.00003735,0.,0.00
 000009,0.00137720,0.00001244,0.00000533,0.05163453,-0.00005999,0.00040
 192,0.,0.00029153,0.00002233,-0.00000001,-0.00011307,0.00003800,0.,0.0
 0064165,0.00011762,-0.00000007,0.00122051,0.00192776,-0.00000002,-0.00
 061114,0.00010754,0.00000004,0.00005192,-0.00002743,0.,0.00056952,-0.0
 0005832,0.00000004,0.00021950,-0.00014651,0.00000005,-0.00002380,0.000
 04642,0.,-0.00001663,-0.00003082,0.,0.00000827,0.00003490,0.,0.0001098
 3,-0.00011573,0.,-0.00080586,0.00026852,0.00000003,-0.00090341,-0.0025
 3856,-0.00000068,-0.00000931,0.00002807,0.,0.00005313,0.00004731,0.,-0
 .00000176,0.00002138,0.,-0.00010808,-0.00009768,0.,-0.00001040,-0.0000
 0513,0.,-0.00001503,0.00001709,0.,0.00069220,-0.00007930,0.,-0.2084015
 4,0.20402872,-0.00000528,0.19785609,-0.00000592,0.00005503,0.00000002,
 -0.00007675,0.00008545,0.,0.00028206,0.00010740,-0.00000002,0.00032989
 ,-0.00034003,-0.00000007,0.00112761,0.00018541,-0.00000004,-0.00006324
 ,0.00037420,0.00000001,-0.00007474,0.00000945,0.00000001,0.00111938,-0
 .00122933,0.00000009,-0.00078560,-0.00020230,0.00000001,0.00020030,-0.
 00006206,0.,0.00007677,0.00024981,0.,0.00002271,0.00002832,0.,0.000333
 78,-0.00001076,-0.00000002,-0.00081974,0.00080626,0.00000008,-0.005268
 28,-0.00225365,-0.00000042,-0.00000029,0.00001615,0.,0.00004609,0.0000
 3760,0.,-0.00000866,0.00002223,0.,-0.00007974,-0.00000946,0.,-0.000037
 22,-0.00003208,0.,-0.00001933,-0.00001512,0.,0.00032668,0.00004877,0.,
 0.15039654,-0.22239722,0.00000373,-0.17762672,0.27007794,0.00000001,-0
 .00000003,-0.00039591,0.,-0.00000001,0.00002372,-0.00000004,-0.0000000
 4,-0.00012695,0.00000002,-0.00000003,0.00052439,0.00000016,-0.00000005
 ,0.00204676,0.00000005,0.00000003,0.00019915,0.,0.,0.00002850,-0.00000
 009,-0.00000005,0.00052570,0.00000001,0.00000002,-0.00096700,0.,0.,-0.
 00010613,0.00000002,0.00000003,0.00013934,0.,0.,-0.00003097,-0.0000000
 3,-0.00000006,-0.00001271,0.,0.00000015,-0.00057001,-0.00000043,-0.000
 00036,0.01461205,0.,0.,-0.00000274,0.,0.,0.00004605,0.,0.,0.00004567,0
 .00000001,0.,0.00003404,0.,0.,-0.00003812,0.,0.00000002,0.00005140,0.0
 0000003,-0.00000003,-0.00049467,-0.00000496,0.00000525,-0.03234348,0.0
 0000507,-0.00000444,0.02897331,0.00225098,0.00320132,-0.00000024,0.001
 24963,-0.00195845,0.00000008,0.00104510,-0.00083434,-0.00000005,0.0000
 3326,-0.00463006,0.00000006,0.02759563,0.00491425,-0.00000021,-0.00885
 625,-0.00397661,-0.00000019,-0.00027713,-0.00002481,0.,-0.00197600,-0.
 00070459,0.00000012,-0.00021450,0.00000251,0.00000004,0.00012748,-0.00
 006565,0.,-0.00007385,0.00041028,-0.00000002,0.00000691,0.00013071,0.,
 -0.00071847,-0.00022779,0.00000004,-0.00064854,0.00393371,-0.00000003,
 -0.00922287,-0.00506950,-0.00000063,0.00009668,-0.00002117,0.,0.000120
 29,0.00019983,0.,0.00012490,-0.00011756,0.,0.00197601,-0.00189458,0.00
 000005,-0.00000151,0.00011605,0.,-0.00031020,0.00035313,0.00000001,0.0
 0035496,-0.00013884,-0.00000002,-0.00197485,0.01111481,-0.00000009,0.0
 0172699,0.00169668,0.00000031,0.27135297,0.00140656,-0.00606044,0.0000
 0025,-0.00155315,0.00005288,-0.00000005,-0.00182705,-0.00257281,0.0000
 0053,-0.01612258,0.00268851,0.00000008,0.00426490,-0.08261810,-0.00000
 539,0.01526677,0.00338894,-0.00000015,0.00032803,-0.00023190,-0.000000
 03,0.00249276,0.00035880,-0.00000022,0.00110919,0.00110384,-0.00000010
 ,-0.00068516,-0.00094710,0.00000004,-0.00087161,-0.00011341,0.,0.00012
 791,-0.00014565,0.,0.00078270,0.00135621,0.00000005,0.00132591,-0.0014
 4052,0.00000004,0.00202668,0.00204374,0.00000014,0.00008444,-0.0005002
 0,0.,-0.00055820,-0.00027460,-0.00000004,-0.00006297,-0.00024073,0.,-0
 .00100298,-0.00009364,-0.00000007,0.00021196,-0.00014083,0.,0.00020063
 ,-0.00008907,-0.00000003,0.00015855,0.00011108,0.,-0.00728902,-0.00092
 508,0.00000092,0.00105162,0.00344073,-0.00000020,-0.28753151,0.6063419
 6,-0.00000013,-0.00000061,-0.00072558,-0.00000016,0.00000028,-0.000046
 96,0.00000010,-0.00000016,-0.00129538,-0.00000136,0.00000023,0.0040718
 1,0.00000086,-0.00000445,0.01711635,0.00000162,0.00000063,-0.00036873,
 0.,-0.00000007,-0.00028760,0.00000046,-0.00000002,-0.00030658,-0.00000
 005,0.00000013,-0.00001669,-0.00000005,-0.00000007,0.00014054,0.000000
 03,0.,0.00005564,0.00000001,-0.00000002,-0.00003727,0.00000015,0.00000
 004,0.00005907,-0.00000004,-0.00000041,-0.00019719,0.00000080,0.000000
 78,0.00106287,0.00000001,-0.00000005,-0.00006854,-0.00000004,-0.000000
 04,0.00013336,-0.00000002,-0.00000002,0.00021347,-0.00000008,0.0000002
 0,0.00045692,0.00000001,-0.00000002,0.00000341,0.00000003,-0.00000004,
 -0.00005024,0.,0.00000003,0.00000178,-0.00000035,-0.00000041,-0.002351
 97,-0.00000044,0.00000030,0.00026966,-0.00003292,0.00005819,0.02386193
 ,-0.00765762,0.00186045,0.00000006,-0.00071210,0.00278307,-0.00000006,
 -0.00118959,0.00477699,-0.00000025,0.02134986,0.01328594,-0.00000051,-
 0.14783518,-0.05388401,0.00000353,-0.01756328,-0.03620574,0.00000128,0
 .00067930,0.00053896,0.00000004,-0.00115239,0.00017673,-0.00000046,0.0
 0034973,-0.00142021,0.00000007,0.00031195,0.00059941,0.,0.00034860,-0.
 00075601,0.,-0.00005826,-0.00008435,0.,-0.00014364,-0.00088712,-0.0000
 0005,0.00055679,-0.00219203,-0.00000028,-0.00374481,0.00796583,0.00000
 101,-0.00025654,0.00046990,0.,-0.00048678,-0.00141053,-0.00000002,0.00
 002072,0.00005050,0.00000003,-0.00070007,-0.00034596,0.00000011,-0.000
 14410,-0.00010375,0.,0.00034769,-0.00031635,0.00000003,-0.00045086,0.0
 0009314,0.00000004,-0.02952115,-0.02881491,0.00000018,-0.00303401,0.00
 155294,-0.00000017,-0.23793642,0.25181110,0.00002931,0.56616719,0.0015
 9534,0.01573391,-0.00000056,0.00648546,-0.00226114,0.00000010,0.006576
 55,-0.00017544,-0.00000032,0.00494227,-0.03368001,-0.00000023,-0.02818
 268,-0.14896606,0.00000677,-0.03647729,-0.00853630,0.00000030,-0.00151
 412,-0.00139554,0.,-0.00364035,0.00080189,0.00000071,-0.00182014,-0.00
 151707,-0.00000015,0.00036044,0.00107595,0.,0.00122759,-0.00011162,0.0
 0000005,-0.00023344,0.00010387,0.00000001,0.00058082,-0.00111461,-0.00
 000023,-0.00080105,-0.00505378,0.00000008,0.02652563,0.00618674,0.0000
 0156,0.00016234,0.00028548,0.,0.00116611,0.00097150,0.,0.00003132,0.00
 019694,0.,0.00264800,-0.00210535,0.00000003,-0.00026765,0.00014465,0.,
 0.00011815,-0.00047338,0.00000003,-0.00032785,0.00008699,0.00000005,-0
 .03640968,-0.00852567,-0.00000231,-0.00584133,-0.00346625,-0.00000030,
 0.24102507,-0.51789808,-0.00005109,-0.16256508,0.80844669,0.00000031,0
 .00000061,0.00780134,-0.00000012,-0.00000042,-0.00082309,0.00000042,0.
 00000002,0.00669099,0.00000087,-0.00000038,-0.00582342,0.00000036,0.00
 000485,-0.06685429,-0.00000159,-0.00000063,0.00187237,-0.00000022,0.00
 000009,0.00058436,-0.00000078,0.,0.00079146,0.00000006,-0.00000015,-0.
 00066930,0.00000019,0.00000015,-0.00035761,0.00000014,-0.00000004,0.00
 002098,-0.00000003,0.,0.00018362,-0.00000019,-0.00000007,-0.00046102,0
 .00000019,0.00000044,0.00218015,-0.00000078,-0.00000136,0.00262489,-0.
 00000002,0.00000003,0.00008447,0.,0.00000005,0.00029412,0.00000003,0.,
 -0.00127328,0.00000010,-0.00000008,-0.00436782,0.,0.00000002,0.0000812
 1,-0.00000001,0.00000004,-0.00021137,0.00000003,-0.00000002,0.00002302
 ,-0.00000226,-0.00000057,0.03127734,0.00000033,-0.00000037,-0.01272274
 ,0.00002918,-0.00005124,-0.06020665,-0.00002482,0.00004599,0.18130838,
 -0.00008677,0.00211365,0.00000018,0.00089242,-0.00042229,0.00000002,-0
 .00004946,0.00047431,0.00000006,-0.00037474,-0.00116051,-0.00000017,-0
 .00297500,-0.00394530,-0.00000238,-0.00124544,-0.00007381,-0.00000007,
 0.00009026,-0.00037699,0.00000005,0.01819472,-0.01216848,0.00000024,-0
 .00114224,-0.00427688,0.00000001,0.00080195,-0.00057246,-0.00000005,-0
 .00027877,-0.00159047,-0.00000002,0.00009636,0.00000867,0.00000002,-0.
 00638622,-0.00303415,0.,-0.01920459,0.03620364,-0.00000002,-0.14590821
 ,0.05539740,-0.00000188,-0.00010947,0.00001948,0.,0.00016015,0.0001350
 5,0.,-0.00002310,-0.00000670,-0.00000004,0.00006282,0.00006492,-0.0000
 0004,-0.00018667,-0.00042616,0.,-0.00057571,0.00138531,0.,0.00060632,-
 0.00003028,0.00000005,-0.22089689,-0.22283370,-0.00000709,0.01067290,0
 .02735480,0.00000002,-0.04585120,0.03485449,0.00000226,-0.13754505,-0.
 01536443,-0.00000138,0.55126163,-0.00104544,-0.00067542,0.00000017,-0.
 00108685,0.00001712,-0.00000006,0.00147354,-0.00093671,0.00000018,0.00
 256664,0.00160366,-0.00000041,-0.02659446,0.00432574,-0.00000145,0.000
 37386,-0.00538384,0.00000002,-0.00030808,0.00085640,0.,0.00217162,-0.0
 3292953,-0.00000022,-0.00550151,-0.00006555,0.00000012,0.00140463,-0.0
 0103033,0.00000002,-0.00398930,-0.00242986,-0.00000009,0.00000115,0.00
 016260,-0.00000003,-0.00256720,0.01164598,0.00000032,0.02932555,-0.005
 27151,0.00000060,0.03870954,-0.16690714,-0.00000239,0.00013985,0.00005
 121,0.,-0.00021222,-0.00051139,0.00000001,0.00015467,0.00001936,-0.000
 00001,0.00017911,0.00016417,0.,-0.00013351,0.00007025,0.,-0.00089872,0
 .00083885,-0.00000007,-0.00122928,-0.00208492,-0.00000025,-0.16273109,
 -0.45429853,-0.00000760,-0.02159165,-0.04552651,0.00000012,0.04009713,
 -0.00659452,-0.00000335,0.00302109,-0.09875429,0.00000304,0.10827089,0
 .80364469,-0.00000003,-0.00000031,-0.00182750,-0.00000009,0.00000012,0
 .00039002,-0.00000006,0.00000013,-0.00144454,-0.00000033,-0.00000059,0
 .00083303,0.00000227,0.00000020,0.01280980,0.00000043,0.00000062,0.003
 70054,0.00000008,-0.00000006,-0.00048134,0.00000062,-0.00000038,-0.001
 79347,-0.00000003,-0.00000005,0.00576534,-0.00000004,-0.00000005,0.000
 55391,-0.00000014,0.00000007,-0.00031364,0.00000005,0.00000002,-0.0012
 0691,-0.00000016,-0.00000026,0.00658044,-0.00000039,0.00000087,0.00386
 551,-0.00000275,-0.00000012,-0.06051804,0.00000002,-0.00000003,0.00008
 768,0.00000002,-0.00000002,-0.00033941,0.,0.,0.00032045,0.,-0.00000005
 ,0.00016452,-0.00000001,0.,0.00004389,-0.00000006,0.00000007,0.0002558
 5,-0.00000004,-0.00000005,-0.00439148,-0.00000603,-0.00000940,-0.04399
 203,0.00000095,0.00000112,0.00029171,0.00000452,-0.00000272,0.01851257
 ,-0.00000906,-0.00000050,-0.08204811,0.00001025,0.00001135,0.14418120|
 |0.00105844,-0.00060086,-0.00000042,0.00054293,0.00084730,-0.00000015,
 -0.00104754,-0.00079676,-0.00000047,-0.00083378,0.00034770,0.00000133,
 -0.00188843,-0.00234405,0.00000661,0.00020777,-0.00029477,0.00000099,0
 .00073730,0.00062447,-0.00000025,0.00089637,0.00010577,-0.00000063,0.0
 0092330,-0.00049665,0.00000029,-0.00080321,0.00078486,-0.00000005,-0.0
 0053947,0.00064592,-0.00000015,0.00003678,-0.00025958,0.00000004,-0.00
 129572,-0.00028074,0.00000001,0.00045051,-0.00033387,0.00000029,0.0010
 0537,-0.00058684,-0.00000055,-0.00009727,-0.00021796,0.00000004,-0.000
 24318,0.00000801,-0.00000013,-0.00004195,-0.00028776,0.00000021,0.0007
 1401,0.00065158,0.00000008,0.00010778,-0.00017571,0.00000010,0.0001664
 6,0.00003812,0.,-0.00080612,0.00071256,-0.00000011,0.00050128,-0.00302
 421,-0.00000212,-0.00013552,0.00005038,0.00000030,0.00149096,-0.004902
 24,0.00000913,-0.00002353,0.00682848,-0.00002465,-0.00108354,0.0029568
 7,0.00001024|||@
 The archive entry for this job was punched.


 I DON'T PRETEND TO UNDERSTAND THE UNIVERSE --
 IT'S A GREAT DEAL BIGGER THAN I AM.
       -- ATTR. TO WILLIAM ALLINGHAM (1828-89)
 Job cpu time:       0 days  2 hours 25 minutes 33.0 seconds.
 Elapsed time:       0 days  2 hours 25 minutes 30.5 seconds.
 File lengths (MBytes):  RWF=    578 Int=      0 D2E=      0 Chk=     21 Scr=      1
 Normal termination of Gaussian 16 at Tue Aug 15 23:27:11 2023.
