 Entering Link 1 = C:\G16W\l1.exe PID=     17608.
  
 Copyright (c) 1988-2019, Gaussian, Inc.  All Rights Reserved.
  
 This is part of the Gaussian(R) 16 program.  It is based on
 the Gaussian(R) 09 system (copyright 2009, Gaussian, Inc.),
 the Gaussian(R) 03 system (copyright 2003, Gaussian, Inc.),
 the Gaussian(R) 98 system (copyright 1998, Gaussian, Inc.),
 the Gaussian(R) 94 system (copyright 1995, Gaussian, Inc.),
 the Gaussian 92(TM) system (copyright 1992, Gaussian, Inc.),
 the Gaussian 90(TM) system (copyright 1990, Gaussian, Inc.),
 the Gaussian 88(TM) system (copyright 1988, Gaussian, Inc.),
 the Gaussian 86(TM) system (copyright 1986, Carnegie Mellon
 University), and the Gaussian 82(TM) system (copyright 1983,
 Carnegie Mellon University). Gaussian is a federally registered
 trademark of Gaussian, Inc.
  
 This software contains proprietary and confidential information,
 including trade secrets, belonging to Gaussian, Inc.
  
 This software is provided under written license and may be
 used, copied, transmitted, or stored only in accord with that
 written license.
  
 The following legend is applicable only to US Government
 contracts under FAR:
  
                    RESTRICTED RIGHTS LEGEND
  
 Use, reproduction and disclosure by the US Government is
 subject to restrictions as set forth in subparagraphs (a)
 and (c) of the Commercial Computer Software - Restricted
 Rights clause in FAR 52.227-19.
  
 Gaussian, Inc.
 340 Quinnipiac St., Bldg. 40, Wallingford CT 06492
  
  
 ---------------------------------------------------------------
 Warning -- This program may not be used in any manner that
 competes with the business of Gaussian, Inc. or will provide
 assistance to any competitor of Gaussian, Inc.  The licensee
 of this program is prohibited from giving any competitor of
 Gaussian, Inc. access to this program.  By using this program,
 the user acknowledges that Gaussian, Inc. is engaged in the
 business of creating and licensing software in the field of
 computational chemistry and represents and warrants to the
 licensee that it is not a competitor of Gaussian, Inc. and that
 it will not use this program in any manner prohibited above.
 ---------------------------------------------------------------
  

 Cite this work as:
 Gaussian 16, Revision C.01,
 M. J. Frisch, G. W. Trucks, H. B. Schlegel, G. E. Scuseria, 
 M. A. Robb, J. R. Cheeseman, G. Scalmani, V. Barone, 
 G. A. Petersson, H. Nakatsuji, X. Li, M. Caricato, A. V. Marenich, 
 J. Bloino, B. G. Janesko, R. Gomperts, B. Mennucci, H. P. Hratchian, 
 J. V. Ortiz, A. F. Izmaylov, J. L. Sonnenberg, D. Williams-Young, 
 F. Ding, F. Lipparini, F. Egidi, J. Goings, B. Peng, A. Petrone, 
 T. Henderson, D. Ranasinghe, V. G. Zakrzewski, J. Gao, N. Rega, 
 G. Zheng, W. Liang, M. Hada, M. Ehara, K. Toyota, R. Fukuda, 
 J. Hasegawa, M. Ishida, T. Nakajima, Y. Honda, O. Kitao, H. Nakai, 
 T. Vreven, K. Throssell, J. A. Montgomery, Jr., J. E. Peralta, 
 F. Ogliaro, M. J. Bearpark, J. J. Heyd, E. N. Brothers, K. N. Kudin, 
 V. N. Staroverov, T. A. Keith, R. Kobayashi, J. Normand, 
 K. Raghavachari, A. P. Rendell, J. C. Burant, S. S. Iyengar, 
 J. Tomasi, M. Cossi, J. M. Millam, M. Klene, C. Adamo, R. Cammi, 
 J. W. Ochterski, R. L. Martin, K. Morokuma, O. Farkas, 
 J. B. Foresman, and D. J. Fox, Gaussian, Inc., Wallingford CT, 2019.
 
 ******************************************
 Gaussian 16:  EM64W-G16RevC.01 30-May-2019
                09-Aug-2023 
 ******************************************
 %chk=C:\Users\jared\Desktop\spectras\4-ONE_5-IMINE-PYRENE.chk
 --------------------------------------------------
 # freq=raman b3lyp/6-311++g(d,p) geom=connectivity
 --------------------------------------------------
 1/10=4,30=1,38=1,57=2/1,3;
 2/12=2,17=6,18=5,40=1/2;
 3/5=4,6=6,7=1111,11=2,25=1,30=1,71=2,74=-5,140=1/1,2,3;
 4//1;
 5/5=2,38=5,98=1/2;
 8/6=4,10=90,11=11/1;
 10/13=10,15=4/2;
 11/6=3,8=1,9=11,15=111,16=1/1,2,10;
 10/6=1/2;
 6/7=2,8=2,9=2,10=2,28=1/1;
 7/8=1,10=1,25=1/1,2,3,16;
 1/10=4,30=1/3;
 99//99;
 -------------------
 Title Card Required
 -------------------
 Symbolic Z-matrix:
 Charge =  0 Multiplicity = 1
 C                     3.53068  -0.50652  -0.00001 
 C                     2.80439  -1.68368  -0.00001 
 C                     1.3932   -1.67404   0. 
 C                     0.70925  -0.42801   0.00002 
 C                     1.47254   0.76876   0.00003 
 C                     2.86252   0.72181   0.00001 
 C                     0.63778  -2.89381   0. 
 C                    -0.73567  -0.40764   0.00002 
 C                    -1.4474   -1.63856   0.00001 
 C                    -0.71982  -2.87533   0.00001 
 C                    -2.85779  -1.6183    0. 
 H                    -3.39534  -2.56062  0. 
 C                    -3.54774  -0.42103  -0.00001 
 C                    -2.84975   0.79243  -0.00001 
 C                    -1.46036   0.81188   0.00001 
 H                     1.17623  -3.83535  -0.00001 
 H                     4.61399  -0.53442  -0.00002 
 H                     3.31805  -2.63949  -0.00002 
 H                     3.40968   1.6566    0.00001 
 H                    -1.28185  -3.80308   0. 
 H                    -4.63166  -0.41765  -0.00002 
 H                    -3.37798   1.73751  -0.00002 
 N                    -1.35472   3.21559  -0.00002 
 H                    -0.66515   3.97525   0. 
 O                     1.39974   3.14078  -0.00006 
 C                     0.7964    2.0822    0.00007 
 C                    -0.73505   2.10083   0. 
 

 GradGradGradGradGradGradGradGradGradGradGradGradGradGradGradGradGradGrad
 Berny optimization.
 Initialization pass.
 Trust Radius=3.00D-01 FncErr=1.00D-07 GrdErr=1.00D-07 EigMax=2.50D+02 EigMin=1.00D-04
 Number of steps in this run=      2 maximum allowed number of steps=      2.
 GradGradGradGradGradGradGradGradGradGradGradGradGradGradGradGradGradGrad

                          Input orientation:                          
 ---------------------------------------------------------------------
 Center     Atomic      Atomic             Coordinates (Angstroms)
 Number     Number       Type             X           Y           Z
 ---------------------------------------------------------------------
      1          6           0        3.530678   -0.506518   -0.000012
      2          6           0        2.804388   -1.683679   -0.000010
      3          6           0        1.393201   -1.674042    0.000003
      4          6           0        0.709253   -0.428011    0.000016
      5          6           0        1.472541    0.768760    0.000025
      6          6           0        2.862521    0.721807    0.000005
      7          6           0        0.637784   -2.893807    0.000001
      8          6           0       -0.735674   -0.407635    0.000015
      9          6           0       -1.447401   -1.638560    0.000008
     10          6           0       -0.719817   -2.875332    0.000005
     11          6           0       -2.857793   -1.618302    0.000000
     12          1           0       -3.395338   -2.560619   -0.000004
     13          6           0       -3.547740   -0.421033   -0.000008
     14          6           0       -2.849746    0.792430   -0.000008
     15          6           0       -1.460358    0.811881    0.000005
     16          1           0        1.176230   -3.835350   -0.000007
     17          1           0        4.613990   -0.534418   -0.000023
     18          1           0        3.318053   -2.639490   -0.000022
     19          1           0        3.409676    1.656595    0.000011
     20          1           0       -1.281849   -3.803080    0.000000
     21          1           0       -4.631659   -0.417645   -0.000016
     22          1           0       -3.377980    1.737507   -0.000015
     23          7           0       -1.354715    3.215590   -0.000017
     24          1           0       -0.665147    3.975252    0.000000
     25          8           0        1.399735    3.140777   -0.000060
     26          6           0        0.796398    2.082198    0.000066
     27          6           0       -0.735046    2.100827    0.000002
 ---------------------------------------------------------------------
                    Distance matrix (angstroms):
                    1          2          3          4          5
     1  C    0.000000
     2  C    1.383187   0.000000
     3  C    2.435553   1.411220   0.000000
     4  C    2.822517   2.442600   1.421400   0.000000
     5  C    2.421211   2.790748   2.444090   1.419461   0.000000
     6  C    1.398290   2.406188   2.810515   2.441033   1.390773
     7  C    3.750731   2.481649   1.434741   2.466832   3.756490
     8  C    4.267498   3.763021   2.477074   1.445071   2.502023
     9  C    5.105173   4.252028   2.840824   2.473173   3.784343
    10  C    4.866003   3.720223   2.430626   2.834011   4.252745
    11  C    6.484491   5.662558   4.251359   3.760400   4.944680
    12  H    7.224197   6.261440   4.869920   4.625547   5.897543
    13  C    7.078934   6.476404   5.097345   4.256999   5.159344
    14  C    6.511304   6.172548   4.907757   3.762439   4.322352
    15  C    5.162230   4.941243   3.784523   2.498909   2.933216
    16  H    4.077321   2.698256   2.172171   3.439190   4.613635
    17  H    1.083671   2.143702   3.416464   3.906187   3.401026
    18  H    2.143544   1.085093   2.153403   3.420011   3.875833
    19  H    2.166495   3.394673   3.893496   3.411432   2.130902
    20  H    5.833330   4.603172   3.418873   3.918619   5.337451
    21  H    8.162821   7.543052   6.154468   5.340922   6.218425
    22  H    7.263966   7.065847   5.865393   4.625467   4.946314
    23  N    6.141755   6.426583   5.608881   4.187576   3.739031
    24  H    6.139317   6.637859   6.012597   4.612776   3.853739
    25  O    4.224178   5.024781   4.814823   3.634971   2.373134
    26  C    3.765334   4.267769   3.803355   2.511721   1.477257
    27  C    4.999465   5.181706   4.333483   2.912219   2.578341
                    6          7          8          9         10
     6  C    0.000000
     7  C    4.245247   0.000000
     8  C    3.771292   2.840324   0.000000
     9  C    4.913935   2.433853   1.421876   0.000000
    10  C    5.076668   1.357727   2.467748   1.434916   0.000000
    11  C    6.180461   3.721018   2.443175   1.410537   2.480134
    12  H    7.066479   4.046861   3.421864   2.155145   2.693967
    13  C    6.511339   4.861401   2.812098   2.427714   3.744427
    14  C    5.712704   5.074565   2.430937   2.806472   4.241353
    15  C    4.323817   4.258441   1.418586   2.450475   3.760843
    16  H    4.859142   1.084632   3.924870   3.421889   2.125236
    17  H    2.155399   4.623519   5.351166   6.161135   5.824893
    18  H    3.392024   2.692307   4.627513   4.869437   4.044752
    19  H    1.083147   5.328184   4.630872   5.869348   6.131156
    20  H    6.135993   2.124092   3.439092   2.170842   1.084710
    21  H    7.580309   5.822234   3.895998   3.410298   4.619820
    22  H    6.322618   6.129880   3.403442   3.889083   5.323919
    23  N    4.899391   6.426102   3.675727   4.855035   6.123922
    24  H    4.798890   6.991538   4.383454   5.668051   6.850802
    25  O    2.826864   6.082497   4.141401   5.563115   6.378563
    26  C    2.473768   4.978532   2.923442   4.344960   5.184208
    27  C    3.852815   5.179868   2.508462   3.806634   4.976182
                   11         12         13         14         15
    11  C    0.000000
    12  H    1.084858   0.000000
    13  C    1.381839   2.145007   0.000000
    14  C    2.410745   3.397147   1.399889   0.000000
    15  C    2.803322   3.888175   2.424302   1.389524   0.000000
    16  H    4.603112   4.745964   5.828675   6.133908   5.343066
    17  H    7.549990   8.261648   8.162518   7.580757   6.221754
    18  H    6.259704   6.713854   7.215308   7.058316   5.894504
    19  H    7.071500   8.005817   7.261004   6.318793   4.942750
    20  H    2.693855   2.451641   4.070934   4.855617   4.618412
    21  H    2.142003   2.474031   1.083924   2.153949   3.401306
    22  H    3.395887   4.298161   2.165205   1.082683   2.129333
    23  N    5.062189   6.126070   4.246691   2.847248   2.406029
    24  H    6.007957   7.083188   5.257059   3.860418   3.261790
    25  O    6.385560   7.449741   6.096228   4.855185   3.688345
    26  C    5.200655   6.255110   5.013751   3.867540   2.589721
    27  C    4.282286   5.367144   3.777701   2.486737   1.479006
                   16         17         18         19         20
    16  H    0.000000
    17  H    4.765957   0.000000
    18  H    2.453057   2.471999   0.000000
    19  H    5.928722   2.500182   4.297062   0.000000
    20  H    2.458291   6.741296   4.744791   7.198504   0.000000
    21  H    6.738864   9.246386   8.254363   8.304549   4.762604
    22  H    7.197052   8.308624   7.999685   6.788138   5.923839
    23  N    7.491424   7.048972   7.491110   5.012972   7.019048
    24  H    8.024723   6.943084   7.721444   4.688321   7.802741
    25  O    6.979706   4.882468   6.090273   2.498531   7.443658
    26  C    5.929726   4.628249   5.352857   2.647708   6.241443
    27  C    6.236279   5.962944   6.236843   4.168460   5.929175
                   21         22         23         24         25
    21  H    0.000000
    22  H    2.493269   0.000000
    23  N    4.892725   2.505660   0.000000
    24  H    5.918679   3.516670   1.025958   0.000000
    25  O    7.002862   4.979531   2.755466   2.227125   0.000000
    26  C    5.976037   4.188585   2.431433   2.391603   1.218444
    27  C    4.639644   2.667790   1.275416   1.875728   2.374613
                   26         27
    26  C    0.000000
    27  C    1.531557   0.000000
 Stoichiometry    C16H9NO
 Framework group  C1[X(C16H9NO)]
 Deg. of freedom    75
 Full point group                 C1      NOp   1
 Largest Abelian subgroup         C1      NOp   1
 Largest concise Abelian subgroup C1      NOp   1
                         Standard orientation:                         
 ---------------------------------------------------------------------
 Center     Atomic      Atomic             Coordinates (Angstroms)
 Number     Number       Type             X           Y           Z
 ---------------------------------------------------------------------
      1          6           0       -3.530678   -0.506518    0.000012
      2          6           0       -2.804388   -1.683679    0.000010
      3          6           0       -1.393201   -1.674042   -0.000003
      4          6           0       -0.709253   -0.428011   -0.000016
      5          6           0       -1.472541    0.768760   -0.000025
      6          6           0       -2.862521    0.721807   -0.000005
      7          6           0       -0.637784   -2.893807   -0.000001
      8          6           0        0.735674   -0.407635   -0.000015
      9          6           0        1.447401   -1.638560   -0.000008
     10          6           0        0.719817   -2.875332   -0.000005
     11          6           0        2.857793   -1.618302    0.000000
     12          1           0        3.395338   -2.560619    0.000004
     13          6           0        3.547740   -0.421033    0.000008
     14          6           0        2.849746    0.792430    0.000008
     15          6           0        1.460358    0.811881   -0.000005
     16          1           0       -1.176230   -3.835350    0.000007
     17          1           0       -4.613990   -0.534418    0.000023
     18          1           0       -3.318053   -2.639490    0.000022
     19          1           0       -3.409676    1.656595   -0.000011
     20          1           0        1.281849   -3.803080    0.000000
     21          1           0        4.631659   -0.417645    0.000016
     22          1           0        3.377980    1.737507    0.000015
     23          7           0        1.354715    3.215590    0.000017
     24          1           0        0.665146    3.975252    0.000000
     25          8           0       -1.399735    3.140777    0.000060
     26          6           0       -0.796398    2.082198   -0.000066
     27          6           0        0.735046    2.100827   -0.000002
 ---------------------------------------------------------------------
 Rotational constants (GHZ):           0.6004072           0.5177220           0.2780037
 Standard basis: 6-311++G(d,p) (5D, 7F)
 There are   477 symmetry adapted cartesian basis functions of A   symmetry.
 There are   459 symmetry adapted basis functions of A   symmetry.
   459 basis functions,   729 primitive gaussians,   477 cartesian basis functions
    60 alpha electrons       60 beta electrons
       nuclear repulsion energy      1181.1380198591 Hartrees.
 NAtoms=   27 NActive=   27 NUniq=   27 SFac= 1.00D+00 NAtFMM=   60 NAOKFM=F Big=F
 Integral buffers will be    131072 words long.
 Raffenetti 2 integral format.
 Two-electron integral symmetry is turned on.
 One-electron integrals computed using PRISM.
 NBasis=   459 RedAO= T EigKep=  1.68D-06  NBF=   459
 NBsUse=   449 1.00D-06 EigRej=  8.45D-07 NBFU=   449
 ExpMin= 3.60D-02 ExpMax= 8.59D+03 ExpMxC= 1.30D+03 IAcc=3 IRadAn=         5 AccDes= 0.00D+00
 Harris functional with IExCor=  402 and IRadAn=       5 diagonalized for initial guess.
 HarFok:  IExCor=  402 AccDes= 0.00D+00 IRadAn=         5 IDoV= 1 UseB2=F ITyADJ=14
 ICtDFT=  3500011 ScaDFX=  1.000000  1.000000  1.000000  1.000000
 FoFCou: FMM=F IPFlag=           0 FMFlag=      100000 FMFlg1=           0
         NFxFlg=           0 DoJE=T BraDBF=F KetDBF=T FulRan=T
         wScrn=  0.000000 ICntrl=       500 IOpCl=  0 I1Cent=   200000004 NGrid=           0
         NMat0=    1 NMatS0=      1 NMatT0=    0 NMatD0=    1 NMtDS0=    0 NMtDT0=    0
 Petite list used in FoFCou.
 Requested convergence on RMS density matrix=1.00D-08 within 128 cycles.
 Requested convergence on MAX density matrix=1.00D-06.
 Requested convergence on             energy=1.00D-06.
 No special actions if energy rises.
 SCF Done:  E(RB3LYP) =  -745.308525945     A.U. after   15 cycles
            NFock= 15  Conv=0.83D-08     -V/T= 2.0042
 DoSCS=F DFT=T ScalE2(SS,OS)=  1.000000  1.000000
 Range of M.O.s used for correlation:     1   449
 NBasis=   459 NAE=    60 NBE=    60 NFC=     0 NFV=     0
 NROrb=    449 NOA=    60 NOB=    60 NVA=   389 NVB=   389

 **** Warning!!: The largest alpha MO coefficient is  0.98740028D+02

          Differentiating once with respect to electric field.
                with respect to dipole field.
          Electric field/nuclear overlap derivatives assumed to be zero.
          There are     3 degrees of freedom in the 1st order CPHF.  IDoFFX=0 NUNeed=     3.
      3 vectors produced by pass  0 Test12= 7.78D-13 3.33D-08 XBig12= 4.87D+02 1.34D+01.
 AX will form     3 AO Fock derivatives at one time.
      3 vectors produced by pass  1 Test12= 7.78D-13 3.33D-08 XBig12= 1.58D+02 2.23D+00.
      3 vectors produced by pass  2 Test12= 7.78D-13 3.33D-08 XBig12= 2.17D+01 1.02D+00.
      3 vectors produced by pass  3 Test12= 7.78D-13 3.33D-08 XBig12= 1.47D+01 9.50D-01.
      3 vectors produced by pass  4 Test12= 7.78D-13 3.33D-08 XBig12= 1.97D+00 3.10D-01.
      3 vectors produced by pass  5 Test12= 7.78D-13 3.33D-08 XBig12= 1.35D+00 4.44D-01.
      3 vectors produced by pass  6 Test12= 7.78D-13 3.33D-08 XBig12= 2.03D-01 1.72D-01.
      3 vectors produced by pass  7 Test12= 7.78D-13 3.33D-08 XBig12= 1.31D-01 1.22D-01.
      3 vectors produced by pass  8 Test12= 7.78D-13 3.33D-08 XBig12= 3.35D-02 6.36D-02.
      3 vectors produced by pass  9 Test12= 7.78D-13 3.33D-08 XBig12= 7.73D-03 1.52D-02.
      3 vectors produced by pass 10 Test12= 7.78D-13 3.33D-08 XBig12= 1.69D-03 8.48D-03.
      3 vectors produced by pass 11 Test12= 7.78D-13 3.33D-08 XBig12= 3.40D-04 5.41D-03.
      3 vectors produced by pass 12 Test12= 7.78D-13 3.33D-08 XBig12= 7.08D-05 2.65D-03.
      3 vectors produced by pass 13 Test12= 7.78D-13 3.33D-08 XBig12= 1.50D-05 8.64D-04.
      3 vectors produced by pass 14 Test12= 7.78D-13 3.33D-08 XBig12= 1.31D-06 2.36D-04.
      3 vectors produced by pass 15 Test12= 7.78D-13 3.33D-08 XBig12= 4.08D-07 1.16D-04.
      2 vectors produced by pass 16 Test12= 7.78D-13 3.33D-08 XBig12= 4.21D-08 3.05D-05.
      2 vectors produced by pass 17 Test12= 7.78D-13 3.33D-08 XBig12= 1.39D-09 4.66D-06.
      2 vectors produced by pass 18 Test12= 7.78D-13 3.33D-08 XBig12= 6.36D-11 8.80D-07.
      2 vectors produced by pass 19 Test12= 7.78D-13 3.33D-08 XBig12= 3.10D-12 2.63D-07.
      1 vectors produced by pass 20 Test12= 7.78D-13 3.33D-08 XBig12= 1.35D-13 6.19D-08.
 InvSVY:  IOpt=1 It=  1 EMax= 3.55D-15
 Solved reduced A of dimension    57 with     3 vectors.
 End of Minotr F.D. properties file   721 does not exist.
 End of Minotr F.D. properties file   722 does not exist.
 End of Minotr F.D. properties file   788 does not exist.
 Symmetrizing basis deriv contribution to polar:
 IMax=3 JMax=2 DiffMx= 0.00D+00
 G2DrvN: will do    28 centers at a time, making    1 passes.
 PxScal for G2LodP:  IOpCl= 0 ISclPx=1 IMOff=     1 NMtTot=     4 NTT=  105570 ScalPx= 2.70D+01
 Calling FoFCou, ICntrl=  3107 FMM=F I1Cent=   0 AccDes= 0.00D+00.
 End of G2Drv F.D. properties file   721 does not exist.
 End of G2Drv F.D. properties file   722 does not exist.
 End of G2Drv F.D. properties file   788 does not exist.
          IDoAtm=111111111111111111111111111
          Differentiating once with respect to electric field.
                with respect to dipole field.
          Differentiating once with respect to nuclear coordinates.
 CalDSu exits because no D1Ps are significant.
          There are    84 degrees of freedom in the 1st order CPHF.  IDoFFX=5 NUNeed=    84.
 Will reuse    3 saved solutions.
     78 vectors produced by pass  0 Test12= 2.78D-14 1.19D-09 XBig12= 3.03D-01 1.24D-01.
 AX will form    78 AO Fock derivatives at one time.
     78 vectors produced by pass  1 Test12= 2.78D-14 1.19D-09 XBig12= 5.09D-02 6.64D-02.
     78 vectors produced by pass  2 Test12= 2.78D-14 1.19D-09 XBig12= 7.50D-04 4.65D-03.
     78 vectors produced by pass  3 Test12= 2.78D-14 1.19D-09 XBig12= 3.31D-06 2.35D-04.
     78 vectors produced by pass  4 Test12= 2.78D-14 1.19D-09 XBig12= 8.87D-09 1.19D-05.
     78 vectors produced by pass  5 Test12= 2.78D-14 1.19D-09 XBig12= 2.06D-11 4.90D-07.
     43 vectors produced by pass  6 Test12= 2.78D-14 1.19D-09 XBig12= 4.14D-14 1.84D-08.
 InvSVY:  IOpt=1 It=  1 EMax= 1.33D-15
 Solved reduced A of dimension   511 with    84 vectors.
 Isotropic polarizability for W=    0.000000      201.35 Bohr**3.
 End of Minotr F.D. properties file   721 does not exist.
 End of Minotr F.D. properties file   722 does not exist.
 End of Minotr F.D. properties file   788 does not exist.

 **********************************************************************

            Population analysis using the SCF Density.

 **********************************************************************

 Orbital symmetries:
       Occupied  (A) (A) (A) (A) (A) (A) (A) (A) (A) (A) (A) (A)
                 (A) (A) (A) (A) (A) (A) (A) (A) (A) (A) (A) (A)
                 (A) (A) (A) (A) (A) (A) (A) (A) (A) (A) (A) (A)
                 (A) (A) (A) (A) (A) (A) (A) (A) (A) (A) (A) (A)
                 (A) (A) (A) (A) (A) (A) (A) (A) (A) (A) (A) (A)
       Virtual   (A) (A) (A) (A) (A) (A) (A) (A) (A) (A) (A) (A)
                 (A) (A) (A) (A) (A) (A) (A) (A) (A) (A) (A) (A)
                 (A) (A) (A) (A) (A) (A) (A) (A) (A) (A) (A) (A)
                 (A) (A) (A) (A) (A) (A) (A) (A) (A) (A) (A) (A)
                 (A) (A) (A) (A) (A) (A) (A) (A) (A) (A) (A) (A)
                 (A) (A) (A) (A) (A) (A) (A) (A) (A) (A) (A) (A)
                 (A) (A) (A) (A) (A) (A) (A) (A) (A) (A) (A) (A)
                 (A) (A) (A) (A) (A) (A) (A) (A) (A) (A) (A) (A)
                 (A) (A) (A) (A) (A) (A) (A) (A) (A) (A) (A) (A)
                 (A) (A) (A) (A) (A) (A) (A) (A) (A) (A) (A) (A)
                 (A) (A) (A) (A) (A) (A) (A) (A) (A) (A) (A) (A)
                 (A) (A) (A) (A) (A) (A) (A) (A) (A) (A) (A) (A)
                 (A) (A) (A) (A) (A) (A) (A) (A) (A) (A) (A) (A)
                 (A) (A) (A) (A) (A) (A) (A) (A) (A) (A) (A) (A)
                 (A) (A) (A) (A) (A) (A) (A) (A) (A) (A) (A) (A)
                 (A) (A) (A) (A) (A) (A) (A) (A) (A) (A) (A) (A)
                 (A) (A) (A) (A) (A) (A) (A) (A) (A) (A) (A) (A)
                 (A) (A) (A) (A) (A) (A) (A) (A) (A) (A) (A) (A)
                 (A) (A) (A) (A) (A) (A) (A) (A) (A) (A) (A) (A)
                 (A) (A) (A) (A) (A) (A) (A) (A) (A) (A) (A) (A)
                 (A) (A) (A) (A) (A) (A) (A) (A) (A) (A) (A) (A)
                 (A) (A) (A) (A) (A) (A) (A) (A) (A) (A) (A) (A)
                 (A) (A) (A) (A) (A) (A) (A) (A) (A) (A) (A) (A)
                 (A) (A) (A) (A) (A) (A) (A) (A) (A) (A) (A) (A)
                 (A) (A) (A) (A) (A) (A) (A) (A) (A) (A) (A) (A)
                 (A) (A) (A) (A) (A) (A) (A) (A) (A) (A) (A) (A)
                 (A) (A) (A) (A) (A) (A) (A) (A) (A) (A) (A) (A)
                 (A) (A) (A) (A) (A) (A) (A) (A) (A) (A) (A) (A)
                 (A) (A) (A) (A) (A) (A) (A) (A) (A) (A) (A) (A)
                 (A) (A) (A) (A) (A) (A) (A) (A) (A) (A) (A) (A)
                 (A) (A) (A) (A) (A) (A) (A) (A) (A) (A) (A) (A)
                 (A) (A) (A) (A) (A) (A) (A) (A) (A) (A) (A) (A)
                 (A) (A) (A) (A) (A)
 The electronic state is 1-A.
 Alpha  occ. eigenvalues --  -19.13113 -14.31461 -10.27759 -10.23657 -10.21444
 Alpha  occ. eigenvalues --  -10.20940 -10.20936 -10.20637 -10.20492 -10.20436
 Alpha  occ. eigenvalues --  -10.20269 -10.20101 -10.19839 -10.19724 -10.19703
 Alpha  occ. eigenvalues --  -10.19651 -10.19341 -10.19173  -1.06574  -0.92953
 Alpha  occ. eigenvalues --   -0.90867  -0.87418  -0.83654  -0.81280  -0.78428
 Alpha  occ. eigenvalues --   -0.75331  -0.74768  -0.70384  -0.65237  -0.64943
 Alpha  occ. eigenvalues --   -0.63214  -0.60699  -0.56659  -0.55807  -0.53575
 Alpha  occ. eigenvalues --   -0.52429  -0.49654  -0.49501  -0.48575  -0.46070
 Alpha  occ. eigenvalues --   -0.45929  -0.45027  -0.44983  -0.43739  -0.43041
 Alpha  occ. eigenvalues --   -0.41446  -0.41271  -0.39407  -0.39183  -0.38964
 Alpha  occ. eigenvalues --   -0.36071  -0.35383  -0.35008  -0.33139  -0.31067
 Alpha  occ. eigenvalues --   -0.30315  -0.28268  -0.27033  -0.25153  -0.23827
 Alpha virt. eigenvalues --   -0.11467  -0.07356  -0.04953  -0.01663  -0.01359
 Alpha virt. eigenvalues --   -0.00496  -0.00032   0.00375   0.01459   0.01700
 Alpha virt. eigenvalues --    0.02924   0.03141   0.03532   0.03902   0.04130
 Alpha virt. eigenvalues --    0.05424   0.06043   0.06437   0.06611   0.06933
 Alpha virt. eigenvalues --    0.07236   0.07599   0.09083   0.09169   0.10066
 Alpha virt. eigenvalues --    0.10166   0.10348   0.10813   0.10950   0.11119
 Alpha virt. eigenvalues --    0.11411   0.11742   0.12216   0.12537   0.12854
 Alpha virt. eigenvalues --    0.13088   0.13120   0.13390   0.13654   0.14484
 Alpha virt. eigenvalues --    0.14768   0.14893   0.15066   0.15983   0.17065
 Alpha virt. eigenvalues --    0.17076   0.17285   0.17348   0.17475   0.17607
 Alpha virt. eigenvalues --    0.19127   0.19775   0.19846   0.20711   0.20935
 Alpha virt. eigenvalues --    0.21576   0.21673   0.22172   0.22178   0.22960
 Alpha virt. eigenvalues --    0.23238   0.23292   0.23516   0.23666   0.23739
 Alpha virt. eigenvalues --    0.24436   0.25441   0.25592   0.25705   0.26540
 Alpha virt. eigenvalues --    0.26628   0.27084   0.27666   0.27902   0.28606
 Alpha virt. eigenvalues --    0.28737   0.28862   0.29123   0.29767   0.29918
 Alpha virt. eigenvalues --    0.30218   0.30736   0.30807   0.31152   0.31648
 Alpha virt. eigenvalues --    0.32503   0.33099   0.33104   0.33236   0.33803
 Alpha virt. eigenvalues --    0.34107   0.34989   0.36096   0.36783   0.37125
 Alpha virt. eigenvalues --    0.38904   0.39906   0.40262   0.41497   0.42232
 Alpha virt. eigenvalues --    0.42952   0.44417   0.46170   0.46909   0.49717
 Alpha virt. eigenvalues --    0.50088   0.51326   0.51898   0.52989   0.53500
 Alpha virt. eigenvalues --    0.54198   0.54315   0.55179   0.55953   0.56630
 Alpha virt. eigenvalues --    0.57544   0.58221   0.58531   0.58713   0.59151
 Alpha virt. eigenvalues --    0.59468   0.59504   0.60325   0.61450   0.62759
 Alpha virt. eigenvalues --    0.62937   0.63452   0.63972   0.64483   0.64611
 Alpha virt. eigenvalues --    0.65370   0.65667   0.66739   0.67420   0.68048
 Alpha virt. eigenvalues --    0.69626   0.71535   0.72186   0.72278   0.72748
 Alpha virt. eigenvalues --    0.72930   0.74942   0.75252   0.75482   0.76285
 Alpha virt. eigenvalues --    0.76904   0.78140   0.80081   0.80872   0.81430
 Alpha virt. eigenvalues --    0.82775   0.84089   0.84810   0.85068   0.85601
 Alpha virt. eigenvalues --    0.88206   0.88315   0.89048   0.89096   0.89194
 Alpha virt. eigenvalues --    0.90215   0.90510   0.91473   0.92055   0.93084
 Alpha virt. eigenvalues --    0.93710   0.94757   0.94894   0.95223   0.96275
 Alpha virt. eigenvalues --    0.96971   0.98010   0.99934   1.00258   1.00331
 Alpha virt. eigenvalues --    1.00897   1.02043   1.03269   1.03874   1.05177
 Alpha virt. eigenvalues --    1.07285   1.07652   1.09157   1.09183   1.09884
 Alpha virt. eigenvalues --    1.10580   1.10655   1.12848   1.13970   1.14108
 Alpha virt. eigenvalues --    1.15931   1.15998   1.21431   1.22343   1.24121
 Alpha virt. eigenvalues --    1.24692   1.30163   1.32564   1.34247   1.34878
 Alpha virt. eigenvalues --    1.36056   1.38183   1.42194   1.43569   1.44423
 Alpha virt. eigenvalues --    1.44800   1.46483   1.46652   1.47863   1.48532
 Alpha virt. eigenvalues --    1.48832   1.49704   1.50199   1.50245   1.53454
 Alpha virt. eigenvalues --    1.54798   1.55226   1.55779   1.57946   1.58005
 Alpha virt. eigenvalues --    1.60043   1.60778   1.61743   1.65654   1.66827
 Alpha virt. eigenvalues --    1.68415   1.69319   1.69894   1.69994   1.71582
 Alpha virt. eigenvalues --    1.72915   1.73092   1.73234   1.74124   1.74660
 Alpha virt. eigenvalues --    1.78144   1.78504   1.80200   1.84742   1.85252
 Alpha virt. eigenvalues --    1.86187   1.86966   1.88035   1.88369   1.88543
 Alpha virt. eigenvalues --    1.88823   1.90190   1.91840   1.93284   1.93691
 Alpha virt. eigenvalues --    1.94619   1.95186   1.95525   1.96985   1.98496
 Alpha virt. eigenvalues --    2.01588   2.01816   2.03734   2.04300   2.05283
 Alpha virt. eigenvalues --    2.06228   2.06416   2.12225   2.12987   2.14047
 Alpha virt. eigenvalues --    2.14178   2.16064   2.18838   2.21228   2.22704
 Alpha virt. eigenvalues --    2.25923   2.28125   2.28460   2.30970   2.31692
 Alpha virt. eigenvalues --    2.35249   2.40637   2.41734   2.42951   2.45027
 Alpha virt. eigenvalues --    2.47365   2.48280   2.48443   2.49732   2.51147
 Alpha virt. eigenvalues --    2.55040   2.55325   2.61239   2.62664   2.65543
 Alpha virt. eigenvalues --    2.65756   2.68228   2.68449   2.69876   2.71278
 Alpha virt. eigenvalues --    2.71474   2.72376   2.72763   2.73962   2.74804
 Alpha virt. eigenvalues --    2.75322   2.76241   2.76502   2.76925   2.78087
 Alpha virt. eigenvalues --    2.78376   2.79402   2.80079   2.80846   2.82696
 Alpha virt. eigenvalues --    2.83529   2.85699   2.86511   2.88465   2.88690
 Alpha virt. eigenvalues --    2.88792   2.90405   2.91587   2.92264   2.93551
 Alpha virt. eigenvalues --    2.94169   3.00893   3.04139   3.04450   3.07347
 Alpha virt. eigenvalues --    3.11302   3.12021   3.18507   3.20202   3.23966
 Alpha virt. eigenvalues --    3.24865   3.25970   3.27836   3.34024   3.34561
 Alpha virt. eigenvalues --    3.37300   3.37885   3.39489   3.40506   3.41267
 Alpha virt. eigenvalues --    3.45094   3.48456   3.52265   3.54835   3.57818
 Alpha virt. eigenvalues --    3.60018   3.63628   3.64134   3.65318   3.71476
 Alpha virt. eigenvalues --    3.81991   3.89608   3.91221   4.01746   4.04550
 Alpha virt. eigenvalues --    4.05317   4.08798   4.11431   4.12781   4.23852
 Alpha virt. eigenvalues --    4.30673   4.43053   4.46342   4.77803   4.81724
 Alpha virt. eigenvalues --    4.82435   4.84406   4.94245   5.05424   5.25684
 Alpha virt. eigenvalues --    5.76752  23.46253  23.70705  23.82085  23.88841
 Alpha virt. eigenvalues --   23.90997  23.92355  23.94303  23.94667  23.96553
 Alpha virt. eigenvalues --   24.00117  24.02516  24.06438  24.07797  24.16207
 Alpha virt. eigenvalues --   24.17057  24.19718  35.70174  50.04637
          Condensed to atoms (all electrons):
               1          2          3          4          5          6
     1  C    7.110852   0.448420  -0.115096  -0.157066  -0.984161   0.657086
     2  C    0.448420   8.240518  -1.441778   0.181268   1.324205  -1.602240
     3  C   -0.115096  -1.441778  10.030351   0.626156  -0.648653   1.060477
     4  C   -0.157066   0.181268   0.626156   6.093826   1.251110  -0.001354
     5  C   -0.984161   1.324205  -0.648653   1.251110  12.184512  -0.309225
     6  C    0.657086  -1.602240   1.060477  -0.001354  -0.309225   8.440639
     7  C   -0.212448  -0.338337  -0.034949  -0.115608  -0.789543  -0.260784
     8  C   -0.502843   0.088406  -0.124443   0.938100  -0.568836  -0.572143
     9  C    0.066588  -0.762970   1.500689  -0.100839  -1.018273  -0.177409
    10  C   -0.207712  -0.205071  -1.568652  -0.122140  -0.633779  -0.044968
    11  C    0.003636   0.159059  -0.087707  -0.002466  -0.147299  -0.211898
    12  H   -0.000459   0.000416   0.020373   0.011709  -0.000660  -0.002202
    13  C    0.012001  -0.029537  -0.112526  -0.508814   0.067934   0.055025
    14  C    0.031922  -0.194611   0.010191  -0.426904  -0.066697   0.335380
    15  C   -0.049428   0.031632  -0.082890   0.722228  -1.413806  -0.580652
    16  H    0.042155   0.015681  -0.028685   0.006303  -0.022939   0.012795
    17  H    0.456718  -0.070048   0.016336  -0.003694  -0.045668  -0.073512
    18  H   -0.095324   0.455940  -0.105268   0.008351   0.003917  -0.024857
    19  H   -0.171783  -0.010563  -0.000159   0.025458   0.092930   0.409652
    20  H   -0.001409  -0.006824  -0.027691  -0.024795  -0.008916   0.004263
    21  H    0.000183  -0.000012   0.000237  -0.011937   0.006406   0.001100
    22  H   -0.001412  -0.002196   0.010943   0.025986  -0.018961  -0.009205
    23  N    0.010734   0.000891  -0.013421  -0.097549  -0.008545   0.043411
    24  H    0.000822   0.003028  -0.008804   0.003710  -0.005624  -0.002153
    25  O    0.064148   0.011038  -0.015814   0.017239  -0.073970   0.099740
    26  C   -0.126440  -0.167194  -1.677555  -1.090021  -0.283499  -0.555669
    27  C   -0.105091   0.096407  -1.626831  -1.064917  -2.389890  -0.680155
               7          8          9         10         11         12
     1  C   -0.212448  -0.502843   0.066588  -0.207712   0.003636  -0.000459
     2  C   -0.338337   0.088406  -0.762970  -0.205071   0.159059   0.000416
     3  C   -0.034949  -0.124443   1.500689  -1.568652  -0.087707   0.020373
     4  C   -0.115608   0.938100  -0.100839  -0.122140  -0.002466   0.011709
     5  C   -0.789543  -0.568836  -1.018273  -0.633779  -0.147299  -0.000660
     6  C   -0.260784  -0.572143  -0.177409  -0.044968  -0.211898  -0.002202
     7  C    8.818886  -0.402965  -1.091452   2.127996   0.001600   0.047753
     8  C   -0.402965   8.359270   1.553414  -0.025291  -0.050730  -0.001496
     9  C   -1.091452   1.553414  11.407055  -0.336479  -0.037724  -0.074293
    10  C    2.127996  -0.025291  -0.336479   8.473808  -0.133926   0.076138
    11  C    0.001600  -0.050730  -0.037724  -0.133926   7.532430   0.440914
    12  H    0.047753  -0.001496  -0.074293   0.076138   0.440914   0.545857
    13  C   -0.212411  -0.554889  -0.490495  -0.298328   0.696921  -0.084289
    14  C   -0.104940  -0.399984   0.720182  -0.310379  -1.512781  -0.010099
    15  C   -0.900180   4.705053   0.497834  -0.538312   0.301231  -0.024466
    16  H    0.401143  -0.036020   0.000340  -0.046381  -0.002339   0.000533
    17  H   -0.000264  -0.011709   0.007933  -0.003347   0.000170   0.000001
    18  H    0.066793   0.017607   0.002534   0.038005  -0.000164   0.000065
    19  H   -0.010880   0.020917   0.000888  -0.001693  -0.000138   0.000043
    20  H   -0.059833   0.022828  -0.048881   0.397423   0.015571   0.001905
    21  H   -0.005573  -0.014386  -0.010776  -0.005022  -0.042032  -0.020074
    22  H    0.002822   0.080738   0.042957  -0.009185  -0.000866   0.003853
    23  N   -0.004680  -0.246518  -0.070880  -0.002850   0.009841   0.000303
    24  H   -0.000466   0.011774  -0.008568   0.000850   0.001758  -0.000051
    25  O   -0.003170  -0.122060  -0.011048  -0.003065  -0.002232  -0.000033
    26  C   -0.175660  -2.800674  -2.132741  -0.080418  -0.178079  -0.009756
    27  C   -0.384162  -3.218952  -3.848674  -0.168160  -0.596338  -0.050679
              13         14         15         16         17         18
     1  C    0.012001   0.031922  -0.049428   0.042155   0.456718  -0.095324
     2  C   -0.029537  -0.194611   0.031632   0.015681  -0.070048   0.455940
     3  C   -0.112526   0.010191  -0.082890  -0.028685   0.016336  -0.105268
     4  C   -0.508814  -0.426904   0.722228   0.006303  -0.003694   0.008351
     5  C    0.067934  -0.066697  -1.413806  -0.022939  -0.045668   0.003917
     6  C    0.055025   0.335380  -0.580652   0.012795  -0.073512  -0.024857
     7  C   -0.212411  -0.104940  -0.900180   0.401143  -0.000264   0.066793
     8  C   -0.554889  -0.399984   4.705053  -0.036020  -0.011709   0.017607
     9  C   -0.490495   0.720182   0.497834   0.000340   0.007933   0.002534
    10  C   -0.298328  -0.310379  -0.538312  -0.046381  -0.003347   0.038005
    11  C    0.696921  -1.512781   0.301231  -0.002339   0.000170  -0.000164
    12  H   -0.084289  -0.010099  -0.024466   0.000533   0.000001   0.000065
    13  C    7.696846   0.616454  -2.097363   0.000868   0.000407  -0.001208
    14  C    0.616454   8.803214  -2.120342   0.002907   0.000941  -0.001491
    15  C   -2.097363  -2.120342  20.156979  -0.019109   0.004862   0.008156
    16  H    0.000868   0.002907  -0.019109   0.545835   0.001334   0.002821
    17  H    0.000407   0.000941   0.004862   0.001334   0.540765  -0.019756
    18  H   -0.001208  -0.001491   0.008156   0.002821  -0.019756   0.539589
    19  H   -0.002279  -0.006269  -0.006051  -0.000181  -0.017996   0.002668
    20  H    0.038622   0.011476  -0.001426  -0.014027  -0.000189   0.000257
    21  H    0.475404  -0.098359  -0.050703  -0.000168   0.000009  -0.000003
    22  H   -0.207435   0.413451   0.224374   0.000030  -0.000006   0.000011
    23  N    0.112890   0.282975  -1.326254  -0.000041   0.000233  -0.000033
    24  H    0.000569  -0.027211   0.135528  -0.000031  -0.000072   0.000015
    25  O    0.006542   0.024728  -0.153077  -0.000023   0.002124   0.000007
    26  C    0.221658   0.311128  -7.350379   0.001454   0.019012  -0.023873
    27  C    0.832463  -0.079289  -5.302349  -0.007669   0.005963  -0.002294
              19         20         21         22         23         24
     1  C   -0.171783  -0.001409   0.000183  -0.001412   0.010734   0.000822
     2  C   -0.010563  -0.006824  -0.000012  -0.002196   0.000891   0.003028
     3  C   -0.000159  -0.027691   0.000237   0.010943  -0.013421  -0.008804
     4  C    0.025458  -0.024795  -0.011937   0.025986  -0.097549   0.003710
     5  C    0.092930  -0.008916   0.006406  -0.018961  -0.008545  -0.005624
     6  C    0.409652   0.004263   0.001100  -0.009205   0.043411  -0.002153
     7  C   -0.010880  -0.059833  -0.005573   0.002822  -0.004680  -0.000466
     8  C    0.020917   0.022828  -0.014386   0.080738  -0.246518   0.011774
     9  C    0.000888  -0.048881  -0.010776   0.042957  -0.070880  -0.008568
    10  C   -0.001693   0.397423  -0.005022  -0.009185  -0.002850   0.000850
    11  C   -0.000138   0.015571  -0.042032  -0.000866   0.009841   0.001758
    12  H    0.000043   0.001905  -0.020074   0.003853   0.000303  -0.000051
    13  C   -0.002279   0.038622   0.475404  -0.207435   0.112890   0.000569
    14  C   -0.006269   0.011476  -0.098359   0.413451   0.282975  -0.027211
    15  C   -0.006051  -0.001426  -0.050703   0.224374  -1.326254   0.135528
    16  H   -0.000181  -0.014027  -0.000168   0.000030  -0.000041  -0.000031
    17  H   -0.017996  -0.000189   0.000009  -0.000006   0.000233  -0.000072
    18  H    0.002668   0.000257  -0.000003   0.000011  -0.000033   0.000015
    19  H    0.496320  -0.000028  -0.000035   0.000274  -0.001978   0.000456
    20  H   -0.000028   0.546845   0.001241  -0.000386   0.000001   0.000006
    21  H   -0.000035   0.001241   0.541930  -0.019084   0.000729  -0.000201
    22  H    0.000274  -0.000386  -0.019084   0.486689  -0.018322   0.002665
    23  N   -0.001978   0.000001   0.000729  -0.018322   6.811056   0.252160
    24  H    0.000456   0.000006  -0.000201   0.002665   0.252160   0.489619
    25  O   -0.009080  -0.000002   0.000089  -0.001514  -0.014662   0.030774
    26  C    0.019261   0.001712   0.011438  -0.079425   0.460148  -0.143115
    27  C   -0.004363   0.012147   0.056131  -0.133193   0.995643  -0.004508
              25         26         27
     1  C    0.064148  -0.126440  -0.105091
     2  C    0.011038  -0.167194   0.096407
     3  C   -0.015814  -1.677555  -1.626831
     4  C    0.017239  -1.090021  -1.064917
     5  C   -0.073970  -0.283499  -2.389890
     6  C    0.099740  -0.555669  -0.680155
     7  C   -0.003170  -0.175660  -0.384162
     8  C   -0.122060  -2.800674  -3.218952
     9  C   -0.011048  -2.132741  -3.848674
    10  C   -0.003065  -0.080418  -0.168160
    11  C   -0.002232  -0.178079  -0.596338
    12  H   -0.000033  -0.009756  -0.050679
    13  C    0.006542   0.221658   0.832463
    14  C    0.024728   0.311128  -0.079289
    15  C   -0.153077  -7.350379  -5.302349
    16  H   -0.000023   0.001454  -0.007669
    17  H    0.002124   0.019012   0.005963
    18  H    0.000007  -0.023873  -0.002294
    19  H   -0.009080   0.019261  -0.004363
    20  H   -0.000002   0.001712   0.012147
    21  H    0.000089   0.011438   0.056131
    22  H   -0.001514  -0.079425  -0.133193
    23  N   -0.014662   0.460148   0.995643
    24  H    0.030774  -0.143115  -0.004508
    25  O    8.130470   0.837191  -0.544971
    26  C    0.837191  17.328445   4.312579
    27  C   -0.544971   4.312579  20.907278
 Mulliken charges:
               1
     1  C   -0.174591
     2  C   -0.225529
     3  C    0.445170
     4  C   -0.183341
     5  C    0.507931
     6  C   -0.011143
     7  C   -0.358688
     8  C   -0.144167
     9  C    0.421089
    10  C   -0.369059
    11  C   -0.156412
    12  H    0.128695
    13  C   -0.235031
    14  C   -0.205591
    15  C    1.228910
    16  H    0.143414
    17  H    0.189454
    18  H    0.127536
    19  H    0.174607
    20  H    0.140108
    21  H    0.183468
    22  H    0.206398
    23  N   -0.175282
    24  H    0.267071
    25  O   -0.269368
    26  C   -0.649526
    27  C   -1.006124
 Sum of Mulliken charges =   0.00000
 Mulliken charges with hydrogens summed into heavy atoms:
               1
     1  C    0.014864
     2  C   -0.097993
     3  C    0.445170
     4  C   -0.183341
     5  C    0.507931
     6  C    0.163465
     7  C   -0.215275
     8  C   -0.144167
     9  C    0.421089
    10  C   -0.228951
    11  C   -0.027717
    13  C   -0.051563
    14  C    0.000806
    15  C    1.228910
    23  N    0.091789
    25  O   -0.269368
    26  C   -0.649526
    27  C   -1.006124
 APT charges:
               1
     1  C   -0.095221
     2  C    0.084659
     3  C   -0.075904
     4  C    0.112117
     5  C   -0.297358
     6  C   -0.006016
     7  C   -0.024931
     8  C    0.029042
     9  C   -0.015708
    10  C   -0.007500
    11  C   -0.003180
    12  H    0.034316
    13  C   -0.033164
    14  C   -0.043157
    15  C   -0.143056
    16  H    0.030434
    17  H    0.036100
    18  H    0.036549
    19  H    0.076421
    20  H    0.031030
    21  H    0.033883
    22  H    0.079906
    23  N   -0.528982
    24  H    0.225974
    25  O   -0.733590
    26  C    0.885895
    27  C    0.311442
 Sum of APT charges =   0.00000
 APT charges with hydrogens summed into heavy atoms:
               1
     1  C   -0.059121
     2  C    0.121208
     3  C   -0.075904
     4  C    0.112117
     5  C   -0.297358
     6  C    0.070405
     7  C    0.005503
     8  C    0.029042
     9  C   -0.015708
    10  C    0.023530
    11  C    0.031136
    13  C    0.000719
    14  C    0.036749
    15  C   -0.143056
    23  N   -0.303008
    25  O   -0.733590
    26  C    0.885895
    27  C    0.311442
 Electronic spatial extent (au):  <R**2>=           3748.5340
 Charge=              0.0000 electrons
 Dipole moment (field-independent basis, Debye):
    X=             -0.4924    Y=             -4.5474    Z=             -0.0002  Tot=              4.5739
 Quadrupole moment (field-independent basis, Debye-Ang):
   XX=            -90.4540   YY=           -104.7265   ZZ=           -107.4763
   XY=              0.2324   XZ=              0.0001   YZ=             -0.0008
 Traceless Quadrupole moment (field-independent basis, Debye-Ang):
   XX=             10.4316   YY=             -3.8409   ZZ=             -6.5907
   XY=              0.2324   XZ=              0.0001   YZ=             -0.0008
 Octapole moment (field-independent basis, Debye-Ang**2):
  XXX=            -11.7430  YYY=            -54.2998  ZZZ=              0.0003  XYY=             -0.3762
  XXY=            -28.4198  XXZ=              0.0004  XZZ=             -2.7291  YZZ=             12.8785
  YYZ=             -0.0019  XYZ=              0.0005
 Hexadecapole moment (field-independent basis, Debye-Ang**3):
 XXXX=          -2434.7837 YYYY=          -2270.1318 ZZZZ=           -122.2912 XXXY=            -25.4158
 XXXZ=             -0.0005 YYYX=              2.2770 YYYZ=             -0.0096 ZZZX=             -0.0002
 ZZZY=             -0.0018 XXYY=           -854.1141 XXZZ=           -531.6923 YYZZ=           -426.5394
 XXYZ=             -0.0028 YYXZ=              0.0004 ZZXY=             -6.8363
 N-N= 1.181138019859D+03 E-N=-4.095175678494D+03  KE= 7.421583684000D+02
  Exact polarizability:     270.898       4.712     243.438       0.000       0.000      89.706
 Approx polarizability:     462.234       8.831     438.799      -0.001       0.001     148.135
 Calling FoFJK, ICntrl=    100127 FMM=F ISym2X=0 I1Cent= 0 IOpClX= 0 NMat=1 NMatS=1 NMatT=0.
 Full mass-weighted force constant matrix:
 Low frequencies ---   -4.2718   -3.9950   -3.7697   -0.0008   -0.0005    0.0005
 Low frequencies ---   54.3641   74.6591  151.5603
 Diagonal vibrational polarizability:
        4.5442779      12.8705737      21.9961303
 Diagonal vibrational hyperpolarizability:
       10.9701522    -107.4774081       0.0121378
 Harmonic frequencies (cm**-1), IR intensities (KM/Mole), Raman scattering
 activities (A**4/AMU), depolarization ratios for plane and unpolarized
 incident light, reduced masses (AMU), force constants (mDyne/A),
 and normal coordinates:
                      1                      2                      3
                      A                      A                      A
 Frequencies --     54.3639                74.6588               151.5603
 Red. masses --      8.7667                 5.2180                 5.6216
 Frc consts  --      0.0153                 0.0171                 0.0761
 IR Inten    --      0.0247                 1.8490                 0.4901
 Raman Activ --      0.3005                 0.3556                 0.2058
 Depolar (P) --      0.7500                 0.7500                 0.7500
 Depolar (U) --      0.8571                 0.8571                 0.8571
  Atom  AN      X      Y      Z        X      Y      Z        X      Y      Z
     1   6     0.00   0.00   0.07     0.00   0.00   0.25     0.00   0.00  -0.14
     2   6     0.00   0.00   0.13     0.00   0.00   0.09     0.00   0.00  -0.15
     3   6     0.00   0.00   0.08     0.00   0.00  -0.06     0.00   0.00   0.06
     4   6     0.00   0.00   0.02     0.00   0.00  -0.04     0.00   0.00   0.24
     5   6     0.00   0.00  -0.05     0.00   0.00   0.04     0.00   0.00   0.22
     6   6     0.00   0.00  -0.04     0.00   0.00   0.19     0.00   0.00   0.05
     7   6     0.00   0.00   0.08     0.00   0.00  -0.20     0.00   0.00  -0.04
     8   6     0.00   0.00   0.00     0.00   0.00  -0.04     0.00   0.00   0.24
     9   6     0.00   0.00  -0.06     0.00   0.00  -0.08     0.00   0.00   0.05
    10   6     0.00   0.00  -0.01     0.00   0.00  -0.21     0.00   0.00  -0.05
    11   6     0.00   0.00  -0.14     0.00   0.00   0.05     0.00   0.00  -0.16
    12   1     0.00   0.00  -0.20     0.00   0.00   0.04     0.00   0.00  -0.36
    13   6     0.00   0.00  -0.14     0.00   0.00   0.22     0.00   0.00  -0.14
    14   6     0.00   0.00  -0.04     0.00   0.00   0.20     0.00   0.00   0.06
    15   6     0.00   0.00   0.03     0.00   0.00   0.05     0.00   0.00   0.22
    16   1     0.00   0.00   0.13     0.00   0.00  -0.28     0.00   0.00  -0.16
    17   1     0.00   0.00   0.10     0.00   0.00   0.38     0.00   0.00  -0.32
    18   1     0.00   0.00   0.19     0.00   0.00   0.10     0.00   0.00  -0.34
    19   1     0.00   0.00  -0.11     0.00   0.00   0.27     0.00   0.00   0.00
    20   1     0.00   0.00  -0.03     0.00   0.00  -0.30     0.00   0.00  -0.17
    21   1     0.00   0.00  -0.22     0.00   0.00   0.35     0.00   0.00  -0.32
    22   1     0.00   0.00  -0.02     0.00   0.00   0.30     0.00   0.00   0.02
    23   7     0.00   0.00   0.52     0.00   0.00  -0.11     0.00   0.00  -0.18
    24   1     0.00   0.00   0.50     0.00   0.00  -0.18     0.00   0.00  -0.31
    25   8     0.00   0.00  -0.43     0.00   0.00  -0.21     0.00   0.00  -0.19
    26   6     0.00   0.00  -0.16     0.00   0.00  -0.08     0.00   0.00   0.07
    27   6     0.00   0.00   0.16     0.00   0.00  -0.04     0.00   0.00   0.09
                      4                      5                      6
                      A                      A                      A
 Frequencies --    163.7460               231.0471               273.3387
 Red. masses --      4.3697                 3.6348                 4.8183
 Frc consts  --      0.0690                 0.1143                 0.2121
 IR Inten    --      0.0742                 3.2135                 0.2474
 Raman Activ --      0.0685                 0.3600                 1.0506
 Depolar (P) --      0.7500                 0.7500                 0.7500
 Depolar (U) --      0.8571                 0.8571                 0.8571
  Atom  AN      X      Y      Z        X      Y      Z        X      Y      Z
     1   6     0.00   0.00  -0.05     0.00   0.00   0.01     0.00   0.00  -0.19
     2   6     0.00   0.00   0.20     0.00   0.00  -0.17     0.00   0.00  -0.04
     3   6     0.00   0.00   0.15     0.00   0.00  -0.10     0.00   0.00   0.19
     4   6     0.00   0.00   0.00     0.00   0.00  -0.13     0.00   0.00   0.15
     5   6     0.00   0.00  -0.12     0.00   0.00   0.02     0.00   0.00   0.22
     6   6     0.00   0.00  -0.22     0.00   0.00   0.18     0.00   0.00   0.09
     7   6     0.00   0.00   0.13     0.00   0.00   0.18     0.00   0.00   0.13
     8   6     0.00   0.00  -0.03     0.00   0.00  -0.13     0.00   0.00  -0.14
     9   6     0.00   0.00  -0.16     0.00   0.00  -0.10     0.00   0.00  -0.18
    10   6     0.00   0.00  -0.11     0.00   0.00   0.19     0.00   0.00  -0.14
    11   6     0.00   0.00  -0.20     0.00   0.00  -0.16     0.00   0.00   0.04
    12   1     0.00   0.00  -0.36     0.00   0.00  -0.24     0.00   0.00   0.18
    13   6     0.00   0.00   0.05     0.00   0.00   0.00     0.00   0.00   0.19
    14   6     0.00   0.00   0.23     0.00   0.00   0.17     0.00   0.00  -0.08
    15   6     0.00   0.00   0.10     0.00   0.00   0.01     0.00   0.00  -0.21
    16   1     0.00   0.00   0.25     0.00   0.00   0.41     0.00   0.00   0.21
    17   1     0.00   0.00  -0.09     0.00   0.00   0.04     0.00   0.00  -0.48
    18   1     0.00   0.00   0.36     0.00   0.00  -0.27     0.00   0.00  -0.19
    19   1     0.00   0.00  -0.38     0.00   0.00   0.37     0.00   0.00   0.06
    20   1     0.00   0.00  -0.20     0.00   0.00   0.43     0.00   0.00  -0.23
    21   1     0.00   0.00   0.10     0.00   0.00   0.03     0.00   0.00   0.47
    22   1     0.00   0.00   0.40     0.00   0.00   0.36     0.00   0.00  -0.05
    23   7     0.00   0.00  -0.08     0.00   0.00  -0.01     0.00   0.00   0.05
    24   1     0.00   0.00  -0.13     0.00   0.00  -0.01     0.00   0.00   0.17
    25   8     0.00   0.00   0.08     0.00   0.00  -0.03     0.00   0.00  -0.05
    26   6     0.00   0.00  -0.01     0.00   0.00   0.00     0.00   0.00   0.05
    27   6     0.00   0.00   0.03     0.00   0.00   0.00     0.00   0.00  -0.08
                      7                      8                      9
                      A                      A                      A
 Frequencies --    318.4009               339.6431               378.6138
 Red. masses --      6.3023                 4.8977                 7.6165
 Frc consts  --      0.3764                 0.3329                 0.6433
 IR Inten    --      2.2908                 4.7645                 6.1216
 Raman Activ --      1.7087                 0.7401                11.7261
 Depolar (P) --      0.6876                 0.1376                 0.7455
 Depolar (U) --      0.8149                 0.2420                 0.8542
  Atom  AN      X      Y      Z        X      Y      Z        X      Y      Z
     1   6    -0.04  -0.19   0.00     0.00   0.20   0.00    -0.22   0.00   0.00
     2   6     0.01  -0.16   0.00    -0.11   0.11   0.00    -0.13   0.04   0.00
     3   6     0.00  -0.03   0.00    -0.08  -0.07   0.00    -0.10   0.08   0.00
     4   6    -0.10   0.03   0.00    -0.01  -0.11   0.00    -0.06   0.05   0.00
     5   6    -0.11   0.07   0.00     0.09  -0.06   0.00    -0.17  -0.04   0.00
     6   6    -0.13  -0.11   0.00     0.10   0.12   0.00    -0.21   0.00   0.00
     7   6     0.05  -0.01   0.00    -0.01  -0.05   0.00     0.00   0.15   0.00
     8   6    -0.10   0.00   0.00    -0.02  -0.11   0.00     0.04   0.03   0.00
     9   6    -0.03   0.04   0.00     0.07  -0.05   0.00     0.10   0.08   0.00
    10   6     0.05   0.01   0.00     0.02  -0.04   0.00     0.01   0.14   0.00
    11   6    -0.03   0.11   0.00     0.10   0.15   0.00     0.13   0.07   0.00
    12   1    -0.01   0.12   0.00     0.23   0.23   0.00     0.09   0.04   0.00
    13   6    -0.05   0.12   0.00    -0.02   0.23   0.00     0.21   0.04   0.00
    14   6    -0.10   0.05   0.00    -0.13   0.14   0.00     0.18   0.01   0.00
    15   6    -0.09  -0.04   0.00    -0.11  -0.07   0.00     0.15  -0.06   0.00
    16   1     0.07  -0.02   0.00     0.04  -0.08   0.00     0.06   0.11   0.00
    17   1    -0.04  -0.25   0.00     0.00   0.29   0.00    -0.22  -0.05   0.00
    18   1     0.07  -0.19   0.00    -0.24   0.18   0.00    -0.07   0.01   0.00
    19   1    -0.27  -0.18   0.00     0.23   0.20   0.00    -0.18   0.02   0.00
    20   1     0.08   0.04   0.00    -0.02  -0.07   0.00    -0.06   0.10   0.00
    21   1    -0.05   0.15   0.00    -0.02   0.34   0.00     0.21   0.01   0.00
    22   1    -0.19   0.10   0.00    -0.29   0.22   0.00     0.11   0.05   0.00
    23   7     0.30  -0.19   0.00     0.07  -0.15   0.00    -0.22  -0.11   0.00
    24   1     0.52   0.00   0.00     0.14  -0.08   0.00    -0.42  -0.28   0.00
    25   8     0.21   0.22   0.00     0.00  -0.11   0.00     0.27  -0.05   0.00
    26   6     0.01   0.11   0.00     0.05  -0.08   0.00     0.01  -0.18   0.00
    27   6     0.03  -0.04   0.00    -0.04  -0.09   0.00     0.01  -0.22   0.00
                     10                     11                     12
                      A                      A                      A
 Frequencies --    400.6854               402.3639               405.2225
 Red. masses --      6.4036                 9.3695                 7.2923
 Frc consts  --      0.6057                 0.8937                 0.7055
 IR Inten    --     12.6193                 0.0748                15.8471
 Raman Activ --      1.8482                 3.9905                 6.4730
 Depolar (P) --      0.7500                 0.7500                 0.6506
 Depolar (U) --      0.8571                 0.8571                 0.7883
  Atom  AN      X      Y      Z        X      Y      Z        X      Y      Z
     1   6     0.00   0.00  -0.06    -0.03  -0.06   0.00     0.12   0.01   0.00
     2   6     0.00   0.00   0.11    -0.16  -0.14   0.00     0.08  -0.01   0.00
     3   6     0.00   0.00  -0.10    -0.15  -0.18   0.00     0.07  -0.07   0.00
     4   6     0.00   0.00  -0.19    -0.08  -0.15   0.00     0.02  -0.03   0.00
     5   6     0.00   0.00   0.08     0.07  -0.14   0.00     0.06   0.05   0.00
     6   6     0.00   0.00  -0.06     0.07  -0.09   0.00     0.09   0.04   0.00
     7   6     0.00   0.00   0.06    -0.10  -0.13   0.00     0.02  -0.12   0.00
     8   6     0.00   0.00  -0.19    -0.08   0.14   0.00    -0.03  -0.08   0.00
     9   6     0.00   0.00  -0.14    -0.16   0.16   0.00    -0.04  -0.11   0.00
    10   6     0.00   0.00  -0.02    -0.10   0.11   0.00     0.02  -0.15   0.00
    11   6     0.00   0.00   0.17    -0.17   0.13   0.00    -0.04  -0.01   0.00
    12   1     0.00   0.00   0.50    -0.23   0.10   0.00     0.04   0.03   0.00
    13   6     0.00   0.00  -0.06    -0.05   0.05   0.00    -0.12   0.03   0.00
    14   6     0.00   0.00  -0.12     0.05   0.10   0.00    -0.13   0.03   0.00
    15   6     0.00   0.00   0.12     0.06   0.15   0.00    -0.09  -0.02   0.00
    16   1     0.00   0.00   0.27     0.04  -0.21   0.00    -0.04  -0.09   0.00
    17   1     0.00   0.00  -0.05    -0.03   0.07   0.00     0.12   0.01   0.00
    18   1     0.00   0.00   0.35    -0.23  -0.10   0.00     0.02   0.02   0.00
    19   1     0.00   0.00  -0.03     0.10  -0.08   0.00     0.06   0.02   0.00
    20   1     0.00   0.00   0.13     0.04   0.19   0.00     0.04  -0.14   0.00
    21   1     0.00   0.00  -0.03    -0.05  -0.07   0.00    -0.12   0.07   0.00
    22   1     0.00   0.00  -0.17     0.09   0.08   0.00    -0.15   0.04   0.00
    23   7     0.00   0.00  -0.15     0.08   0.27   0.00    -0.36   0.13   0.00
    24   1     0.00   0.00  -0.15    -0.04   0.16   0.00    -0.64  -0.12   0.00
    25   8     0.00   0.00  -0.14     0.20  -0.21   0.00     0.35   0.22   0.00
    26   6     0.00   0.00   0.30     0.25  -0.16   0.00     0.07   0.05   0.00
    27   6     0.00   0.00   0.40     0.22   0.17   0.00    -0.08  -0.02   0.00
                     13                     14                     15
                      A                      A                      A
 Frequencies --    426.4146               490.6876               492.5815
 Red. masses --      3.9363                 7.3640                 3.4877
 Frc consts  --      0.4217                 1.0447                 0.4986
 IR Inten    --      1.8403                 0.7119                 2.5824
 Raman Activ --      1.8017                39.1904                 0.0580
 Depolar (P) --      0.7500                 0.0675                 0.7498
 Depolar (U) --      0.8571                 0.1264                 0.8570
  Atom  AN      X      Y      Z        X      Y      Z        X      Y      Z
     1   6     0.00   0.00   0.04    -0.17  -0.01   0.00     0.00   0.00   0.18
     2   6     0.00   0.00  -0.15    -0.28  -0.09   0.00     0.00   0.00  -0.11
     3   6     0.00   0.00   0.09    -0.20  -0.12   0.00     0.00   0.00  -0.13
     4   6     0.00   0.00  -0.06    -0.05  -0.12   0.00     0.00   0.00   0.14
     5   6     0.00   0.00  -0.21     0.00   0.00   0.00     0.00   0.00  -0.01
     6   6     0.00   0.00   0.11    -0.02  -0.05   0.00     0.00   0.00  -0.15
     7   6     0.00   0.00   0.22    -0.02  -0.07   0.00     0.00   0.00   0.02
     8   6     0.00   0.00   0.12     0.05  -0.12   0.00     0.00   0.00   0.13
     9   6     0.00   0.00  -0.06     0.20  -0.12   0.00     0.00   0.00  -0.14
    10   6     0.00   0.00  -0.22     0.03  -0.06   0.00     0.00   0.00   0.05
    11   6     0.00   0.00   0.10     0.28  -0.09   0.00     0.00   0.00  -0.12
    12   1     0.00   0.00   0.19     0.34  -0.06   0.00     0.00   0.00  -0.15
    13   6     0.00   0.00   0.00     0.17  -0.01   0.00     0.00   0.00   0.19
    14   6     0.00   0.00  -0.10     0.02  -0.06   0.00     0.00   0.00  -0.15
    15   6     0.00   0.00   0.16     0.00   0.01   0.00     0.00   0.00  -0.02
    16   1     0.00   0.00   0.39     0.09  -0.13   0.00     0.00   0.00   0.21
    17   1     0.00   0.00   0.11    -0.17   0.15   0.00     0.00   0.00   0.43
    18   1     0.00   0.00  -0.33    -0.35  -0.06   0.00     0.00   0.00  -0.15
    19   1     0.00   0.00   0.33     0.00  -0.04   0.00     0.00   0.00  -0.33
    20   1     0.00   0.00  -0.44    -0.08  -0.13   0.00     0.00   0.00   0.27
    21   1     0.00   0.00  -0.05     0.17   0.14   0.00     0.00   0.00   0.48
    22   1     0.00   0.00  -0.32     0.01  -0.05   0.00     0.00   0.00  -0.30
    23   7     0.00   0.00   0.00     0.03   0.22   0.00     0.00   0.00  -0.02
    24   1     0.00   0.00  -0.16     0.02   0.21   0.00     0.00   0.00   0.00
    25   8     0.00   0.00   0.04    -0.05   0.20   0.00     0.00   0.00  -0.01
    26   6     0.00   0.00  -0.11    -0.05   0.19   0.00     0.00   0.00   0.06
    27   6     0.00   0.00   0.05     0.04   0.19   0.00     0.00   0.00   0.07
                     16                     17                     18
                      A                      A                      A
 Frequencies --    509.1983               555.2317               566.0776
 Red. masses --      4.7889                 3.8662                 7.1702
 Frc consts  --      0.7316                 0.7022                 1.3537
 IR Inten    --      1.2813                 0.0046                 0.8065
 Raman Activ --      0.8676                 0.1108                14.2021
 Depolar (P) --      0.7490                 0.7500                 0.0523
 Depolar (U) --      0.8565                 0.8571                 0.0994
  Atom  AN      X      Y      Z        X      Y      Z        X      Y      Z
     1   6     0.03   0.13   0.00     0.00   0.00  -0.16     0.06  -0.08   0.00
     2   6    -0.02   0.05   0.00     0.00   0.00   0.15    -0.09  -0.12   0.00
     3   6     0.01  -0.15   0.00     0.00   0.00  -0.17    -0.10   0.12   0.00
     4   6    -0.13  -0.05   0.00     0.00   0.00  -0.23     0.04  -0.02   0.00
     5   6    -0.07   0.02   0.00     0.00   0.00   0.11     0.18  -0.03   0.00
     6   6    -0.06   0.17   0.00     0.00   0.00   0.08     0.23  -0.16   0.00
     7   6     0.25  -0.10   0.00     0.00   0.00   0.05     0.01   0.33   0.00
     8   6    -0.13   0.05   0.00     0.00   0.00   0.24    -0.04  -0.02   0.00
     9   6     0.00   0.15   0.00     0.00   0.00   0.04     0.10   0.11   0.00
    10   6     0.24   0.11   0.00     0.00   0.00  -0.05    -0.01   0.32   0.00
    11   6    -0.02  -0.05   0.00     0.00   0.00  -0.09     0.09  -0.11   0.00
    12   1    -0.20  -0.15   0.00     0.00   0.00  -0.35     0.01  -0.15   0.00
    13   6     0.03  -0.13   0.00     0.00   0.00   0.13    -0.06  -0.08   0.00
    14   6    -0.06  -0.17   0.00     0.00   0.00  -0.09    -0.24  -0.16   0.00
    15   6    -0.07  -0.02   0.00     0.00   0.00   0.04    -0.18  -0.04   0.00
    16   1     0.43  -0.20   0.00     0.00   0.00   0.26     0.12   0.27   0.00
    17   1     0.02   0.09   0.00     0.00   0.00  -0.20     0.06   0.15   0.00
    18   1    -0.19   0.14   0.00     0.00   0.00   0.55     0.00  -0.16   0.00
    19   1    -0.04   0.18   0.00     0.00   0.00   0.22     0.24  -0.15   0.00
    20   1     0.43   0.22   0.00     0.00   0.00  -0.02    -0.13   0.25   0.00
    21   1     0.03  -0.09   0.00     0.00   0.00   0.15    -0.06   0.16   0.00
    22   1    -0.03  -0.18   0.00     0.00   0.00  -0.36    -0.25  -0.16   0.00
    23   7    -0.01   0.01   0.00     0.00   0.00   0.04    -0.05  -0.03   0.00
    24   1    -0.01   0.00   0.00     0.00   0.00   0.01    -0.06  -0.04   0.00
    25   8     0.00  -0.01   0.00     0.00   0.00  -0.01     0.05  -0.02   0.00
    26   6     0.00  -0.01   0.00     0.00   0.00   0.00     0.07  -0.01   0.00
    27   6    -0.01   0.01   0.00     0.00   0.00  -0.11    -0.06  -0.01   0.00
                     19                     20                     21
                      A                      A                      A
 Frequencies --    581.0300               606.5238               608.7482
 Red. masses --      4.2341                 3.9296                 6.8855
 Frc consts  --      0.8422                 0.8517                 1.5034
 IR Inten    --      2.1131                 2.7864                 0.2496
 Raman Activ --      0.0156                 0.2100                 1.2563
 Depolar (P) --      0.7500                 0.7500                 0.7225
 Depolar (U) --      0.8571                 0.8571                 0.8389
  Atom  AN      X      Y      Z        X      Y      Z        X      Y      Z
     1   6     0.00   0.00   0.04     0.00   0.00  -0.12    -0.13  -0.02   0.00
     2   6     0.00   0.00   0.01     0.00   0.00   0.10     0.10   0.11   0.00
     3   6     0.00   0.00  -0.17     0.00   0.00   0.10     0.09   0.14   0.00
     4   6     0.00   0.00   0.08     0.00   0.00   0.07    -0.02   0.08   0.00
     5   6     0.00   0.00   0.22     0.00   0.00  -0.11    -0.14   0.00   0.00
     6   6     0.00   0.00  -0.07     0.00   0.00   0.13    -0.22   0.05   0.00
     7   6     0.00   0.00   0.03     0.00   0.00  -0.18     0.07   0.13   0.00
     8   6     0.00   0.00  -0.04     0.00   0.00  -0.05    -0.02  -0.08   0.00
     9   6     0.00   0.00  -0.20     0.00   0.00  -0.18     0.09  -0.14   0.00
    10   6     0.00   0.00  -0.04     0.00   0.00   0.18     0.08  -0.14   0.00
    11   6     0.00   0.00   0.15     0.00   0.00  -0.06     0.10  -0.10   0.00
    12   1     0.00   0.00   0.42     0.00   0.00   0.11     0.23  -0.03   0.00
    13   6     0.00   0.00  -0.13     0.00   0.00   0.08    -0.13   0.02   0.00
    14   6     0.00   0.00   0.06     0.00   0.00  -0.12    -0.21  -0.05   0.00
    15   6     0.00   0.00   0.20     0.00   0.00   0.20    -0.13   0.00   0.00
    16   1     0.00   0.00   0.42     0.00   0.00  -0.29    -0.07   0.21   0.00
    17   1     0.00   0.00   0.04     0.00   0.00  -0.34    -0.12  -0.24   0.00
    18   1     0.00   0.00   0.09     0.00   0.00   0.02     0.23   0.04   0.00
    19   1     0.00   0.00  -0.38     0.00   0.00   0.24    -0.23   0.04   0.00
    20   1     0.00   0.00   0.30     0.00   0.00   0.46    -0.06  -0.22   0.00
    21   1     0.00   0.00  -0.27     0.00   0.00   0.26    -0.13   0.24   0.00
    22   1     0.00   0.00  -0.07     0.00   0.00  -0.32    -0.22  -0.05   0.00
    23   7     0.00   0.00   0.07     0.00   0.00   0.01     0.09   0.22   0.00
    24   1     0.00   0.00  -0.18     0.00   0.00  -0.30     0.03   0.16   0.00
    25   8     0.00   0.00   0.05     0.00   0.00   0.05     0.09  -0.21   0.00
    26   6     0.00   0.00  -0.14     0.00   0.00  -0.16     0.13  -0.14   0.00
    27   6     0.00   0.00  -0.21     0.00   0.00   0.06     0.13   0.15   0.00
                     22                     23                     24
                      A                      A                      A
 Frequencies --    679.6662               725.2456               730.6102
 Red. masses --      6.8141                 2.9370                 6.1823
 Frc consts  --      1.8546                 0.9102                 1.9443
 IR Inten    --      1.5670                54.6629                 2.3771
 Raman Activ --      1.5132                 0.0174                 1.9796
 Depolar (P) --      0.6966                 0.7500                 0.7448
 Depolar (U) --      0.8212                 0.8571                 0.8537
  Atom  AN      X      Y      Z        X      Y      Z        X      Y      Z
     1   6     0.26  -0.05   0.00     0.00   0.00  -0.12    -0.15   0.00   0.00
     2   6     0.05  -0.16   0.00     0.00   0.00   0.05    -0.21  -0.07   0.00
     3   6    -0.05   0.02   0.00     0.00   0.00  -0.12    -0.07   0.10   0.00
     4   6    -0.22   0.10   0.00     0.00   0.00   0.19    -0.01   0.07   0.00
     5   6    -0.01   0.20   0.00     0.00   0.00  -0.16     0.09   0.07   0.00
     6   6     0.02   0.10   0.00     0.00   0.00   0.07     0.10  -0.09   0.00
     7   6    -0.06   0.07   0.00     0.00   0.00  -0.02     0.25   0.19   0.00
     8   6    -0.22  -0.10   0.00     0.00   0.00   0.15    -0.01  -0.07   0.00
     9   6    -0.05  -0.02   0.00     0.00   0.00  -0.11    -0.07  -0.10   0.00
    10   6    -0.06  -0.07   0.00     0.00   0.00  -0.03     0.25  -0.19   0.00
    11   6     0.04   0.17   0.00     0.00   0.00   0.05    -0.21   0.07   0.00
    12   1    -0.03   0.13   0.00     0.00   0.00   0.35    -0.17   0.10   0.00
    13   6     0.26   0.06   0.00     0.00   0.00  -0.11    -0.15   0.00   0.00
    14   6     0.02  -0.10   0.00     0.00   0.00   0.07     0.10   0.09   0.00
    15   6    -0.01  -0.21   0.00     0.00   0.00  -0.14     0.09  -0.08   0.00
    16   1    -0.16   0.13   0.00     0.00   0.00   0.27     0.20   0.22   0.00
    17   1     0.26  -0.05   0.00     0.00   0.00   0.16    -0.16   0.27   0.00
    18   1    -0.01  -0.12   0.00     0.00   0.00   0.39    -0.16  -0.10   0.00
    19   1    -0.24  -0.05   0.00     0.00   0.00   0.43     0.14  -0.07   0.00
    20   1    -0.16  -0.13   0.00     0.00   0.00   0.25     0.20  -0.22   0.00
    21   1     0.26   0.05   0.00     0.00   0.00   0.11    -0.15  -0.27   0.00
    22   1    -0.24   0.05   0.00     0.00   0.00   0.39     0.12   0.07   0.00
    23   7    -0.05   0.08   0.00     0.00   0.00  -0.02    -0.03   0.01   0.00
    24   1    -0.29  -0.12   0.00     0.00   0.00   0.20    -0.17  -0.11   0.00
    25   8    -0.11  -0.08   0.00     0.00   0.00  -0.01    -0.07   0.00   0.00
    26   6     0.13   0.06   0.00     0.00   0.00   0.04     0.06   0.06   0.00
    27   6     0.16  -0.05   0.00     0.00   0.00   0.02     0.09  -0.06   0.00
                     25                     26                     27
                      A                      A                      A
 Frequencies --    762.8723               778.5706               779.5100
 Red. masses --      3.8922                 1.4341                 1.8990
 Frc consts  --      1.3346                 0.5122                 0.6799
 IR Inten    --      3.0627                 1.0730                 7.3315
 Raman Activ --      0.0594                 0.1493                 0.7585
 Depolar (P) --      0.7500                 0.7499                 0.7500
 Depolar (U) --      0.8571                 0.8571                 0.8571
  Atom  AN      X      Y      Z        X      Y      Z        X      Y      Z
     1   6     0.00   0.00   0.08     0.00   0.00  -0.02     0.00   0.00  -0.05
     2   6     0.00   0.00  -0.02     0.00   0.00  -0.03     0.00   0.00  -0.07
     3   6     0.00   0.00   0.20     0.00   0.00  -0.04     0.00   0.00   0.05
     4   6     0.00   0.00  -0.24     0.00   0.00  -0.02     0.00   0.00   0.02
     5   6     0.00   0.00   0.03     0.00   0.00   0.07     0.00   0.00  -0.03
     6   6     0.00   0.00  -0.04     0.00   0.00  -0.01     0.00   0.00  -0.05
     7   6     0.00   0.00  -0.09     0.00   0.00   0.07     0.00   0.00   0.03
     8   6     0.00   0.00   0.25     0.00   0.00   0.01     0.00   0.00  -0.05
     9   6     0.00   0.00  -0.20     0.00   0.00   0.02     0.00   0.00  -0.05
    10   6     0.00   0.00   0.09     0.00   0.00   0.05     0.00   0.00   0.06
    11   6     0.00   0.00   0.01     0.00   0.00  -0.06     0.00   0.00   0.00
    12   1     0.00   0.00   0.51     0.00   0.00   0.44     0.00   0.00   0.02
    13   6     0.00   0.00  -0.10     0.00   0.00  -0.05     0.00   0.00   0.02
    14   6     0.00   0.00   0.04     0.00   0.00  -0.04     0.00   0.00   0.01
    15   6     0.00   0.00  -0.04     0.00   0.00   0.00     0.00   0.00   0.10
    16   1     0.00   0.00  -0.15     0.00   0.00  -0.37     0.00   0.00  -0.39
    17   1     0.00   0.00  -0.22     0.00   0.00   0.16     0.00   0.00   0.56
    18   1     0.00   0.00  -0.43     0.00   0.00   0.22     0.00   0.00   0.40
    19   1     0.00   0.00  -0.15     0.00   0.00   0.00     0.00   0.00   0.40
    20   1     0.00   0.00   0.13     0.00   0.00  -0.43     0.00   0.00  -0.25
    21   1     0.00   0.00   0.27     0.00   0.00   0.49     0.00   0.00  -0.08
    22   1     0.00   0.00   0.21     0.00   0.00   0.32     0.00   0.00  -0.22
    23   7     0.00   0.00   0.00     0.00   0.00   0.00     0.00   0.00   0.02
    24   1     0.00   0.00   0.25     0.00   0.00  -0.19     0.00   0.00   0.13
    25   8     0.00   0.00  -0.03     0.00   0.00   0.03     0.00   0.00  -0.04
    26   6     0.00   0.00   0.11     0.00   0.00  -0.10     0.00   0.00   0.15
    27   6     0.00   0.00  -0.09     0.00   0.00   0.06     0.00   0.00  -0.15
                     28                     29                     30
                      A                      A                      A
 Frequencies --    800.4618               833.6095               851.3761
 Red. masses --      5.8986                 2.3935                 1.6896
 Frc consts  --      2.2268                 0.9800                 0.7216
 IR Inten    --      3.5936                 0.5235                71.7165
 Raman Activ --      3.6277                 0.3836                 0.0072
 Depolar (P) --      0.0994                 0.7499                 0.7499
 Depolar (U) --      0.1809                 0.8571                 0.8571
  Atom  AN      X      Y      Z        X      Y      Z        X      Y      Z
     1   6     0.25   0.00   0.00     0.00   0.00  -0.05     0.00   0.00  -0.03
     2   6    -0.10  -0.23   0.00     0.00   0.00  -0.08     0.00   0.00  -0.04
     3   6    -0.11  -0.06   0.00     0.00   0.00   0.11     0.00   0.00   0.10
     4   6    -0.10   0.05   0.00     0.00   0.00  -0.07     0.00   0.00  -0.03
     5   6    -0.07   0.13   0.00     0.00   0.00   0.12     0.00   0.00   0.04
     6   6    -0.07   0.19   0.00     0.00   0.00  -0.05     0.00   0.00  -0.05
     7   6     0.01   0.06   0.00     0.00   0.00  -0.04     0.00   0.00  -0.09
     8   6     0.09   0.05   0.00     0.00   0.00   0.07     0.00   0.00  -0.04
     9   6     0.10  -0.07   0.00     0.00   0.00  -0.09     0.00   0.00   0.12
    10   6     0.00   0.03   0.00     0.00   0.00   0.02     0.00   0.00  -0.09
    11   6     0.09  -0.22   0.00     0.00   0.00   0.08     0.00   0.00  -0.06
    12   1     0.29  -0.10   0.00     0.00   0.00  -0.35     0.00   0.00   0.16
    13   6    -0.24  -0.01   0.00     0.00   0.00   0.03     0.00   0.00  -0.03
    14   6     0.07   0.19   0.00     0.00   0.00   0.04     0.00   0.00  -0.05
    15   6     0.07   0.14   0.00     0.00   0.00  -0.12     0.00   0.00   0.06
    16   1     0.10   0.01   0.00     0.00   0.00  -0.04     0.00   0.00   0.53
    17   1     0.25   0.05   0.00     0.00   0.00   0.54     0.00   0.00   0.34
    18   1    -0.30  -0.12   0.00     0.00   0.00   0.35     0.00   0.00   0.08
    19   1    -0.32   0.04   0.00     0.00   0.00   0.23     0.00   0.00   0.25
    20   1    -0.11  -0.03   0.00     0.00   0.00   0.17     0.00   0.00   0.48
    21   1    -0.24   0.03   0.00     0.00   0.00  -0.44     0.00   0.00   0.40
    22   1     0.32   0.05   0.00     0.00   0.00  -0.10     0.00   0.00   0.24
    23   7    -0.01  -0.07   0.00     0.00   0.00  -0.01     0.00   0.00   0.01
    24   1     0.06  -0.01   0.00     0.00   0.00  -0.21     0.00   0.00  -0.09
    25   8     0.01  -0.07   0.00     0.00   0.00   0.03     0.00   0.00   0.00
    26   6     0.04  -0.04   0.00     0.00   0.00  -0.15     0.00   0.00   0.01
    27   6    -0.05  -0.03   0.00     0.00   0.00   0.14     0.00   0.00  -0.03
                     31                     32                     33
                      A                      A                      A
 Frequencies --    877.0337               911.9707               947.8885
 Red. masses --      4.5047                 6.9648                 1.3686
 Frc consts  --      2.0415                 3.4129                 0.7245
 IR Inten    --     19.4370                 5.8018                 3.8318
 Raman Activ --      1.6223                16.4779                 0.2008
 Depolar (P) --      0.0767                 0.0692                 0.7500
 Depolar (U) --      0.1425                 0.1294                 0.8571
  Atom  AN      X      Y      Z        X      Y      Z        X      Y      Z
     1   6    -0.11  -0.03   0.00     0.17   0.02   0.00     0.00   0.00  -0.01
     2   6     0.04   0.05   0.00     0.10   0.04   0.00     0.00   0.00   0.00
     3   6     0.03  -0.05   0.00    -0.02  -0.07   0.00     0.00   0.00   0.01
     4   6     0.06   0.00   0.00    -0.02  -0.27   0.00     0.00   0.00   0.00
     5   6     0.03   0.08   0.00    -0.10  -0.26   0.00     0.00   0.00   0.01
     6   6    -0.07   0.00   0.00    -0.07   0.10   0.00     0.00   0.00   0.00
     7   6    -0.04  -0.13   0.00     0.05   0.27   0.00     0.00   0.00  -0.02
     8   6     0.07  -0.07   0.00    -0.01  -0.23   0.00     0.00   0.00  -0.01
     9   6     0.04   0.03   0.00     0.00  -0.09   0.00     0.00   0.00   0.04
    10   6    -0.05   0.21   0.00    -0.03   0.17   0.00     0.00   0.00   0.00
    11   6     0.02  -0.05   0.00    -0.11   0.06   0.00     0.00   0.00  -0.12
    12   1     0.13   0.02   0.00    -0.05   0.10   0.00     0.00   0.00   0.66
    13   6    -0.19   0.04   0.00    -0.08   0.00   0.00     0.00   0.00   0.03
    14   6    -0.05   0.04   0.00     0.10   0.09   0.00     0.00   0.00   0.10
    15   6     0.07  -0.15   0.00     0.07  -0.16   0.00     0.00   0.00  -0.03
    16   1     0.18  -0.25   0.00     0.18   0.21   0.00     0.00   0.00   0.16
    17   1    -0.11  -0.15   0.00     0.18  -0.27   0.00     0.00   0.00   0.05
    18   1     0.10   0.02   0.00    -0.03   0.12   0.00     0.00   0.00   0.02
    19   1    -0.12  -0.03   0.00     0.06   0.17   0.00     0.00   0.00  -0.01
    20   1     0.09   0.30   0.00    -0.29   0.02   0.00     0.00   0.00  -0.04
    21   1    -0.19   0.10   0.00    -0.08  -0.33   0.00     0.00   0.00  -0.21
    22   1    -0.10   0.07   0.00     0.03   0.13   0.00     0.00   0.00  -0.61
    23   7    -0.03   0.02   0.00     0.05   0.12   0.00     0.00   0.00  -0.03
    24   1    -0.47  -0.37   0.00    -0.01   0.07   0.00     0.00   0.00   0.28
[...]
 00004,0.13350576,0.28031031,-0.00000042,-0.00000004,0.00472090,-0.0000
 0005,-0.00000027,0.00661789,0.00000013,-0.00000010,-0.00097474,0.00000
 034,0.00000008,0.00734729,-0.00000041,0.00000009,0.00379278,0.00000004
 ,-0.00000188,-0.03984357,-0.00000004,-0.00000002,-0.00082653,-0.000000
 05,0.00000001,0.00053280,0.,0.00000004,-0.00050432,0.00000004,-0.00000
 004,0.00016001,0.00000002,0.,-0.00003504,0.,0.,-0.00002968,0.,0.000000
 02,0.00000479,-0.00000001,0.,-0.00002027,0.00000002,0.,0.00015272,0.,0
 .,0.00002066,-0.00000004,0.00000006,-0.00361817,-0.00000003,-0.0000000
 3,-0.00026568,0.00000034,0.00000195,0.02663524,-0.00052409,-0.00007881
 ,0.,0.00007050,-0.00145571,0.,-0.00499599,0.00214603,0.00000004,-0.000
 46418,0.00033654,0.,0.00035245,-0.00012220,-0.00000002,-0.00017116,0.0
 0018126,0.,-0.01223592,-0.02920275,-0.00000013,-0.00159511,0.00273693,
 0.,0.01005909,0.01383133,0.00000009,-0.13087146,-0.12121287,-0.0000006
 6,0.00117461,0.00137625,0.00000001,-0.00012981,-0.00038072,0.,0.000083
 45,-0.00040962,0.,0.00022061,0.00014275,0.,0.00049200,0.00064830,0.,0.
 00095319,0.00026637,0.,-0.00008201,-0.00013815,0.,-0.00002582,0.000049
 18,0.,0.00000249,-0.00000720,0.,0.13796305,-0.00005826,0.00010990,0.,0
 .00000370,0.00000680,0.,0.00098963,0.00156341,-0.00000007,0.00067908,0
 .00016437,0.00000002,-0.00015546,-0.00001002,0.,0.00007506,-0.00002658
 ,0.,0.00236616,0.00412262,0.,0.00407611,-0.00241058,0.,-0.01549040,-0.
 01936243,-0.00000013,-0.12188687,-0.26058280,-0.00000113,-0.00210794,0
 .00107321,-0.00000001,0.00120530,0.00037043,0.00000001,0.00037843,0.00
 004095,0.,0.00005172,0.00015228,0.,-0.00136678,-0.00067433,0.,-0.00027
 004,0.00087120,0.00000004,0.00000576,0.00000303,0.,-0.00000696,-0.0000
 0133,0.,-0.00001469,-0.00000850,0.,0.13107785,0.27492589,0.,0.00000002
 ,-0.00078929,0.,-0.00000001,0.00018734,0.00000007,-0.00000010,0.009614
 83,-0.00000002,0.00000003,-0.00056399,0.,0.00000001,-0.00088086,0.0000
 0001,0.,0.00017053,0.00000014,0.00000008,0.00451042,-0.00000003,-0.000
 00002,0.00385166,-0.00000004,-0.00000010,0.00262225,-0.00000075,-0.000
 00122,-0.03655516,-0.00000001,0.00000003,-0.00209771,0.,0.,0.00024273,
 0.,-0.00000002,-0.00014412,0.00000001,0.,-0.00001534,0.,0.,0.00023172,
 -0.00000003,0.00000004,-0.00562544,0.,0.,-0.00001250,0.,0.,0.00020352,
 0.,0.,0.00008997,0.00000067,0.00000128,0.02475505,0.00001348,0.0000048
 3,0.,-0.00000162,-0.00000235,0.,0.00002908,0.00004777,0.,-0.00003034,0
 .00000074,0.00000001,-0.00006261,0.00002823,0.,0.00000688,-0.00002318,
 0.,-0.00009294,0.00032580,0.,0.00061453,-0.00003625,0.,0.00103508,0.00
 279458,-0.00000005,-0.00059872,-0.00046103,0.,-0.01149662,-0.00242652,
 -0.00000011,0.00081104,0.00023595,0.00000004,-0.33614444,0.00119206,-0
 .00000220,-0.01127871,0.00223230,-0.00000013,0.00076280,-0.00286143,0.
 ,-0.00008070,-0.00000243,0.,-0.00001211,0.00000098,0.,-0.00000029,0.00
 000703,0.,0.00000252,-0.00000479,0.,0.00000719,0.00002990,0.,0.3562798
 4,0.00000003,-0.00005528,0.,0.00006460,0.00006633,0.,-0.00019760,-0.00
 024159,0.,-0.00028269,0.00015516,0.,0.00003249,0.00012847,0.00000001,-
 0.00002341,0.00007123,0.,0.00036172,-0.00032241,0.,0.00028935,-0.00113
 942,0.,0.00210911,-0.00468963,0.00000003,0.00098584,0.00071777,0.00000
 001,0.02881991,0.00424097,0.00000023,-0.00047004,0.00093163,-0.0000000
 1,0.00078609,-0.05903785,0.00000006,-0.02858054,0.00412404,-0.00000023
 ,-0.00229325,-0.00455660,0.00000010,0.00014138,-0.00000095,0.,-0.00000
 056,0.00000495,0.,-0.00000690,0.00000103,0.,0.00000862,-0.00000580,0.,
 -0.00002024,-0.00003504,0.,-0.00107883,0.05852285,0.,0.00000003,0.0000
 2368,-0.00000003,-0.00000002,0.00003967,0.00000002,-0.00000002,0.00018
 633,-0.00000005,0.,-0.00101530,-0.00000004,0.00000003,0.00003154,0.000
 00003,-0.00000002,0.00008437,0.,0.,-0.00049244,0.00000004,0.00000002,-
 0.00080840,-0.00000007,0.00000004,0.00824641,-0.00000002,0.,0.00017628
 ,-0.00000020,-0.00000004,0.00353090,0.00000004,0.,-0.00439774,-0.00000
 221,0.00000005,-0.03766013,0.,0.00000004,0.00330951,-0.00000004,-0.000
 00004,0.00646318,0.,0.,-0.00001120,0.,0.,-0.00002159,0.,0.,-0.00000345
 ,0.,0.,0.00000618,0.,0.,0.00010188,0.00000243,-0.00000011,0.02574890,-
 0.00003158,0.00001297,0.00000001,-0.00005452,0.00012683,0.,-0.00038865
 ,-0.00007294,0.,0.00013298,0.00166385,-0.00000001,0.00029289,-0.000181
 25,-0.00000003,-0.00001589,-0.00012192,-0.00000001,-0.00014766,-0.0001
 2727,0.,-0.00538314,-0.00178925,-0.00000011,-0.00073702,-0.00048988,-0
 .00000001,0.00027595,-0.00005736,0.00000001,-0.00120649,-0.00331994,-0
 .00000005,0.00039918,-0.00082661,0.,0.01199880,-0.01570422,0.00000013,
 -0.12756957,0.12066074,-0.00000113,-0.01170926,0.02882203,-0.00000015,
 0.00000204,0.00001394,0.,0.00000358,-0.00001061,0.,-0.00005847,0.00000
 298,0.,-0.00004509,0.00001367,0.,-0.00002363,0.00007017,0.,0.00078658,
 0.00057757,0.00000003,0.13248641,0.00000585,0.00002872,0.,-0.00005222,
 -0.00002838,0.,0.00009838,0.00014921,0.,0.00011148,0.00030951,-0.00000
 002,0.00019034,-0.00018755,0.00000001,0.00000317,-0.00008000,-0.000000
 01,-0.00016128,0.00001714,0.,-0.00141368,0.00099328,0.00000003,-0.0007
 8313,0.00024541,-0.00000001,0.00014595,-0.00016270,0.,-0.00340785,-0.0
 0262196,0.00000002,0.00067257,-0.00078201,0.,0.01393557,-0.01621104,0.
 00000020,0.12264044,-0.27140163,0.00000160,0.00102831,0.00456133,-0.00
 000002,0.00000573,-0.00000888,0.,0.00000435,-0.00000619,0.,-0.00000578
 ,-0.00000008,0.,-0.00001162,0.00000934,0.,-0.00002600,0.00003839,0.,-0
 .00012980,0.00097000,-0.00000001,-0.13084303,0.28616916,0.,0.,0.000019
 32,0.,0.,-0.00003752,-0.00000002,-0.00000002,-0.00052842,-0.00000006,0
 .00000003,0.00038663,0.,0.,0.00012183,0.,0.,-0.00002991,0.00000002,0.,
 0.00016420,-0.00000006,-0.00000003,0.00755615,0.00000002,-0.00000003,-
 0.00091352,0.,0.00000002,-0.00083150,-0.00000002,0.00000002,0.00648920
 ,0.,0.,-0.00013751,-0.00000003,-0.00000005,0.00444165,-0.00000083,0.00
 000157,-0.04036608,-0.00000045,0.00000012,0.00433089,0.,0.,0.00008315,
 0.,0.,0.00000425,0.,0.,-0.00002013,0.,0.,0.00000752,0.,0.,0.00001830,0
 .00000003,-0.00000002,-0.00358610,0.00000131,-0.00000180,0.02673650,-0
 .00052086,0.00076193,-0.00000009,-0.00066639,-0.00006293,0.,0.00037219
 ,-0.00009177,0.00000003,-0.00211953,-0.00073633,-0.00000007,-0.0105213
 7,-0.00208832,0.00000053,0.00072977,0.00283951,0.00000020,0.00000026,-
 0.00028181,0.,-0.00163888,-0.00370058,0.00000008,-0.00001623,-0.000985
 88,-0.00000004,-0.00012765,0.00011136,0.,0.00100385,-0.00196194,0.0000
 0004,0.00007829,-0.00008090,0.,0.00185419,0.00233475,-0.00000009,-0.00
 638073,-0.00415880,-0.00000005,0.02301807,-0.00674790,0.00000057,0.000
 03604,0.00007089,0.,-0.00022719,0.00032604,0.,0.00001724,0.00006519,0.
 00000001,0.00031091,-0.00022310,0.00000002,0.00007393,-0.00007399,0.,0
 .00008816,0.00019770,0.00000002,-0.00015353,-0.00244387,0.00000005,0.4
 5455604,0.00060544,0.00147043,0.00000007,-0.00120366,0.00001454,-0.000
 00002,0.00103270,0.00015457,-0.00000002,0.00000946,0.00033260,-0.00000
 006,0.00084496,0.00355465,0.,0.00159798,-0.00097420,-0.00000011,-0.000
 42614,-0.00065471,0.,-0.01031540,0.00213297,0.00000004,-0.00157777,-0.
 00233019,-0.00000002,0.00013550,0.00002878,0.00000002,-0.00014192,-0.0
 0046312,-0.00000002,0.00001772,-0.00013629,0.,0.00168420,-0.00295237,0
 .00000002,0.00825079,-0.00028716,0.00000040,0.00259896,-0.06327898,-0.
 00000005,0.00012201,-0.00001571,0.,0.00006409,-0.00000355,0.,0.0000445
 9,-0.00004851,0.,0.00026214,-0.00012035,0.,0.00008324,-0.00024293,0.,-
 0.00028135,-0.00015492,-0.00000002,0.00016107,-0.00068609,-0.00000002,
 -0.03786989,0.75572140,-0.00000004,-0.00000006,0.00078817,0.00000004,0
 .,-0.00003574,-0.00000003,0.,0.00023857,0.,-0.00000021,-0.00085477,-0.
 00000101,-0.00000014,-0.00334100,-0.00000007,0.00000022,-0.00047621,0.
 00000003,0.,0.00015529,-0.00000003,-0.00000023,0.00180964,0.00000012,0
 .00000007,0.00054232,-0.00000003,0.00000001,-0.00009250,-0.00000010,0.
 00000009,-0.00045209,0.,0.,0.00022924,0.,-0.00000019,-0.00027836,0.000
 00001,0.00000019,0.00110142,0.00000099,0.00000044,-0.00507385,0.,0.,-0
 .00001608,0.,0.,-0.00010318,0.,0.,-0.00011780,-0.00000002,0.,-0.000130
 56,0.,0.,-0.00000904,0.00000002,0.00000002,-0.00002499,-0.00000003,-0.
 00000012,0.00056861,0.00001233,-0.00000526,0.05453425,-0.00015125,-0.0
 0043932,0.,0.00036386,-0.00003337,-0.00000001,-0.00019374,0.00002706,0
 .,0.00081316,-0.00021201,-0.00000007,0.00109382,-0.00205146,-0.0000000
 2,-0.00060601,-0.00005466,0.00000004,0.00004569,0.00006632,0.,0.000674
 88,0.00009346,0.00000005,0.00028731,0.00014156,0.00000005,-0.00002313,
 -0.00007591,0.,-0.00002341,0.00013980,0.,0.00000458,-0.00004567,0.,0.0
 0006192,0.00006212,0.,-0.00077256,-0.00013029,0.00000004,-0.00108505,0
 .00245364,-0.00000069,-0.00001130,-0.00002665,0.,0.00004681,-0.0000436
 7,0.,-0.00000381,-0.00001977,0.,-0.00014785,0.00013047,0.,-0.00001422,
 0.00000382,0.,-0.00001778,-0.00000937,0.,0.00074331,0.00021349,-0.0000
 0001,-0.20794138,-0.20490709,-0.00000520,0.19799782,0.00003800,0.00004
 677,-0.00000002,0.00004052,0.00008192,0.,-0.00021090,0.00007259,0.0000
 0002,-0.00032332,-0.00029907,0.00000008,-0.00098606,0.00000853,0.00000
 005,0.00002138,0.00036773,-0.00000002,0.00005636,-0.00002035,-0.000000
 02,-0.00120762,-0.00118853,-0.00000011,0.00070858,-0.00022424,-0.00000
 001,-0.00017423,-0.00006507,0.00000001,-0.00006906,0.00022719,0.,-0.00
 002101,0.00002825,0.,-0.00032489,-0.00005689,0.00000002,0.00088275,0.0
 0079439,-0.00000009,0.00509736,-0.00263732,0.00000048,-0.00000197,0.00
 001463,0.,-0.00004301,0.00003682,0.,0.00000863,0.00002183,0.,0.0000975
 8,-0.00001032,0.,0.00003998,-0.00003569,0.,0.00001565,-0.00001761,0.,-
 0.00033771,0.00000260,0.,-0.15025207,-0.22318090,-0.00000365,0.1776936
 2,0.27113801,0.00000002,0.00000003,-0.00040468,0.,0.00000002,0.0000204
 4,-0.00000003,0.00000003,-0.00013573,0.,0.00000003,0.00055243,0.000000
 19,0.00000008,0.00226471,0.00000005,-0.00000003,0.00011479,0.,-0.00000
 001,0.00001609,-0.00000010,0.00000006,0.00040061,0.,-0.00000002,-0.000
 99517,0.,0.,-0.00010453,0.00000002,-0.00000003,0.00011389,0.,0.,-0.000
 01967,-0.00000002,0.00000005,-0.00007067,0.,-0.00000014,-0.00060996,-0
 .00000045,0.00000035,0.01503597,0.,0.,0.00000117,0.,0.,0.00006187,0.,0
 .,0.00004930,0.00000001,0.,0.00006877,0.,0.,-0.00002415,0.,-0.00000001
 ,0.00007786,0.00000005,0.00000005,-0.00038616,-0.00000490,-0.00000527,
 -0.03369519,0.00000504,0.00000437,0.03028751,0.00276057,-0.00227519,-0
 .00000026,0.00083552,0.00193987,0.00000010,0.00077271,0.00075028,-0.00
 000004,-0.00105757,0.00419262,0.00000012,0.02683390,-0.00332215,-0.000
 00029,-0.00800650,0.00308375,-0.00000014,-0.00003754,-0.00017637,0.,-0
 .00195336,0.00075479,0.00000009,-0.00001761,-0.00003948,0.00000003,0.0
 0005120,0.00041763,0.00000001,-0.00025753,-0.00048445,-0.00000002,0.00
 002744,-0.00010463,0.,-0.00042827,0.00008636,0.00000004,-0.00064355,-0
 .00373079,0.,-0.00891461,0.00511371,-0.00000051,0.00010304,0.00006307,
 0.,0.00012661,-0.00026764,0.,0.00014145,0.00018708,0.,0.00225212,0.001
 48273,0.00000001,0.00002705,-0.00009535,0.,-0.00026232,-0.00033411,0.,
 0.00047037,0.00019021,-0.00000003,-0.00126653,-0.01178087,-0.00000011,
 0.00079221,-0.00169359,0.00000033,0.27524417,-0.00098044,-0.00430103,-
 0.00000028,0.00124478,0.00013694,0.00000009,0.00053247,-0.00218525,-0.
 00000049,0.01431353,0.00098917,0.00000013,-0.00714993,-0.07871158,0.00
 000515,-0.01312785,0.00206578,0.00000020,0.00006404,-0.00012019,0.0000
 0002,-0.00169313,0.00016333,0.00000009,-0.00020188,0.00097652,0.000000
 08,0.00042849,-0.00064296,-0.00000003,0.00043384,0.00033886,0.,-0.0000
 9068,-0.00007952,0.,-0.00079512,0.00086744,-0.00000006,-0.00094522,-0.
 00099464,-0.00000002,-0.00173667,0.00198244,0.00000019,-0.00011151,-0.
 00034630,0.,0.00035637,-0.00027881,0.00000005,0.00007357,-0.00003015,0
 .,0.00147518,-0.00070633,0.00000011,-0.00014435,-0.00006996,0.,-0.0001
 2665,-0.00005944,0.00000002,-0.00027755,-0.00002122,0.,0.00771625,0.00
 038607,-0.00000082,-0.00158684,0.00312304,0.00000019,0.28937779,0.6128
 4972,-0.00000018,0.00000047,-0.00056474,-0.00000011,-0.00000030,-0.000
 11045,0.00000020,0.00000016,-0.00131061,-0.00000116,-0.00000009,0.0037
 5210,0.00000108,0.00000425,0.01717700,0.00000144,-0.00000051,-0.000207
 43,-0.00000005,0.00000007,-0.00025060,0.00000041,0.00000001,-0.0002349
 2,-0.00000012,-0.00000011,-0.00004179,-0.00000002,0.00000003,0.0001566
 1,0.00000005,-0.00000004,0.00007374,0.,0.,-0.00003812,0.00000013,0.,0.
 00002800,-0.00000007,0.00000037,-0.00016260,0.00000078,-0.00000079,0.0
 0104208,0.00000002,0.00000004,-0.00006251,-0.00000003,0.00000004,0.000
 09558,-0.00000002,0.,0.00019675,-0.00000015,-0.00000010,0.00001718,0.,
 0.00000001,-0.00001468,0.00000002,0.00000004,-0.00005918,0.,-0.0000000
 1,-0.00003540,-0.00000035,0.00000031,-0.00187694,-0.00000043,-0.000000
 29,-0.00040727,-0.00003297,-0.00005854,0.02651080,-0.00830799,-0.00224
 587,0.00000010,-0.00018256,-0.00274096,-0.00000007,-0.00151686,-0.0044
 3779,-0.00000024,0.02232070,-0.01380736,-0.00000056,-0.14826038,0.0552
 7497,0.00000355,-0.01772190,0.03671392,0.00000118,0.00050887,-0.000155
 86,0.00000003,-0.00057471,-0.00030460,-0.00000048,0.00036094,0.0012524
 5,0.00000006,0.00032125,-0.00097539,0.,0.00047482,0.00117962,0.,-0.000
 06955,0.00008590,0.,-0.00061227,0.00072971,-0.00000005,0.00084303,0.00
 221771,-0.00000028,-0.00450509,-0.00833401,0.00000098,-0.00028446,-0.0
 0045437,0.00000001,-0.00062533,0.00146362,-0.00000002,-0.00002600,-0.0
 0003844,0.00000003,-0.00100930,0.00045137,0.00000014,-0.00015222,0.000
 11742,-0.00000001,0.00031628,0.00031024,0.00000003,-0.00071493,-0.0002
 2213,0.00000004,-0.03144051,0.03116192,0.00000027,-0.00184732,-0.00171
 354,-0.00000027,-0.24095504,-0.25121627,0.00002927,0.56923458,-0.00217
 912,0.01291106,0.00000059,-0.00589950,-0.00229963,-0.00000015,-0.00464
 743,-0.00088438,0.00000024,-0.00306443,-0.03113948,-0.00000007,0.03376
 904,-0.15470083,-0.00000666,0.03350486,-0.00616522,-0.00000028,0.00104
 693,-0.00157994,0.00000002,0.00239765,0.00122516,-0.00000056,0.0004585
 8,-0.00138948,0.00000019,-0.00006252,0.00083467,-0.00000001,-0.0005541
 9,-0.00086708,-0.00000004,0.00019265,0.00002891,-0.00000001,-0.0004068
 9,-0.00030962,0.00000024,0.00011436,-0.00571192,-0.00000013,-0.0267797
 4,0.00605207,-0.00000196,-0.00011362,0.00006459,0.,-0.00088812,0.00103
 851,-0.00000002,-0.00006394,-0.00014221,0.,-0.00340012,-0.00106193,-0.
 00000002,0.00019372,0.00005854,-0.00000002,-0.00020970,-0.00050703,-0.
 00000003,0.00053100,0.00017972,-0.00000004,0.03642542,-0.01060011,0.00
 000210,0.00636770,-0.00330674,0.00000035,-0.24331551,-0.52729125,0.000
 05143,0.16045832,0.82150875,0.00000042,-0.00000045,0.00750642,-0.00000
 020,0.00000048,-0.00047374,0.00000028,-0.00000006,0.00641707,0.0000006
 1,0.00000016,-0.00490561,-0.00000007,-0.00000484,-0.06688693,-0.000001
 41,0.00000053,0.00230909,-0.00000010,-0.00000007,0.00067912,-0.0000007
 6,0.00000006,0.00035201,0.00000020,0.00000011,-0.00036036,0.00000009,-
 0.00000009,-0.00052525,0.00000013,0.00000010,-0.00019750,-0.00000002,0
 .,0.00021852,-0.00000021,0.00000002,-0.00031500,0.00000028,-0.00000041
 ,0.00183343,-0.00000079,0.00000152,0.00278349,-0.00000003,-0.00000001,
 0.00006068,-0.00000002,-0.00000003,0.00030346,0.00000002,0.00000001,-0
 .00130947,0.00000014,0.,-0.00423330,0.,0.,0.00012943,0.,-0.00000004,-0
 .00018769,0.00000004,0.,0.00021913,-0.00000250,0.00000066,0.03101461,0
 .00000034,0.00000036,-0.01246493,0.00002928,0.00005172,-0.06236264,-0.
 00002480,-0.00004615,0.18327357,-0.00007071,-0.00188910,0.00000018,0.0
 0100473,0.00028906,0.00000004,-0.00026263,-0.00020828,0.00000006,0.000
 02474,0.00103645,-0.00000014,-0.00308971,0.00432428,-0.00000256,-0.000
 97808,-0.00032927,-0.00000007,0.00013469,0.00041692,0.00000005,0.01793
 096,0.01252038,0.00000021,-0.00116200,0.00425407,0.00000002,0.00077156
 ,0.00047770,-0.00000006,-0.00043356,0.00155186,-0.00000003,0.00006866,
 -0.00005050,0.00000002,-0.00644139,0.00262192,0.00000002,-0.01919410,-
 0.03604271,-0.00000005,-0.14640552,-0.05685877,-0.00000188,-0.00009964
 ,-0.00003323,0.,0.00016486,-0.00016639,0.,-0.00000648,0.00001284,-0.00
 000005,0.00002507,-0.00009701,-0.00000004,-0.00019397,0.00039664,0.,-0
 .00067426,-0.00138713,-0.00000001,0.00064734,0.00025456,0.00000004,-0.
 21911816,0.21982735,-0.00000712,0.00991343,-0.02734144,0.00000003,-0.0
 4663793,-0.03583221,0.00000225,-0.13557404,0.01612459,-0.00000094,0.54
 965617,0.00083470,-0.00034820,-0.00000016,0.00068278,-0.00036567,0.000
 00005,-0.00052780,-0.00089618,-0.00000021,-0.00200614,0.00200687,0.000
 00033,0.02708330,0.00353643,0.00000156,-0.00031280,-0.00563097,-0.0000
 0006,0.00002423,0.00083011,0.00000002,-0.00255033,-0.03221055,0.000000
 35,0.00443507,-0.00019673,-0.00000016,-0.00106311,-0.00121768,-0.00000
 002,0.00365326,-0.00270610,0.00000013,0.00000745,-0.00002655,0.0000000
 2,0.00282382,0.01045553,-0.00000035,-0.02839791,-0.00420271,-0.0000005
 1,-0.04122381,-0.16766949,0.00000212,-0.00010502,0.00000570,0.,0.00025
 778,-0.00053023,0.,-0.00013634,-0.00000858,0.00000001,-0.00029041,0.00
 017807,0.00000002,0.00008891,-0.00004081,0.,0.00072851,0.00088912,0.00
 000007,0.00150272,-0.00147607,0.00000024,0.16091104,-0.45766593,0.0000
 0753,0.02224302,-0.04492157,-0.00000009,-0.04001976,-0.00804068,0.0000
 0355,-0.00477058,-0.09594514,-0.00000359,-0.10387259,0.80619800,-0.000
 00009,0.00000025,-0.00167289,-0.00000004,-0.00000015,0.00012060,0.,-0.
 00000011,-0.00106246,-0.00000022,0.00000063,0.00042819,0.00000236,-0.0
 0000026,0.01297169,0.00000042,-0.00000059,0.00337813,0.00000001,0.0000
 0005,-0.00066549,0.00000064,0.00000036,-0.00058085,-0.00000012,0.00000
 005,0.00536242,0.00000002,0.00000003,0.00072495,-0.00000016,-0.0000001
 2,0.00007423,0.00000004,-0.00000003,-0.00124996,-0.00000010,0.00000027
 ,0.00616871,-0.00000051,-0.00000086,0.00483151,-0.00000275,-0.00000009
 ,-0.06141534,0.00000002,0.00000001,0.00012446,0.00000003,0.,-0.0003078
 2,0.,-0.00000001,0.00034622,0.,0.00000008,0.00030715,0.,0.,0.00000266,
 -0.00000007,-0.00000008,0.00024152,-0.00000006,0.00000009,-0.00427505,
 -0.00000579,0.00000934,-0.04440381,0.00000090,-0.00000119,0.00025270,0
 .00000438,0.00000220,0.01869008,-0.00000891,0.00000100,-0.08287759,0.0
 0001002,-0.00001087,0.14448605||-0.00000519,0.00003101,0.00000037,-0.0
 0000703,-0.00002111,0.00000017,0.00000361,-0.00000716,0.00000047,0.000
 00651,-0.00001585,-0.00000121,0.00000693,0.00004562,-0.00000658,0.0000
 2145,-0.00002841,-0.00000099,0.00001753,-0.00000792,0.00000024,-0.0000
 1072,-0.00001094,0.00000059,0.00000160,-0.00000858,-0.00000027,-0.0000
 1863,-0.00000734,0.00000004,-0.00000132,-0.00001687,0.00000013,0.00000
 111,0.00000513,-0.00000004,-0.00000345,0.00000935,0.,0.00000530,-0.000
 00359,-0.00000032,-0.00003470,-0.00001138,0.00000059,-0.00000744,0.000
 00303,-0.00000004,-0.00000277,-0.00000021,0.00000013,0.00000155,0.0000
 0750,-0.00000020,-0.00000012,-0.00000496,0.,0.00000742,0.00000194,-0.0
 0000009,0.00000440,-0.00000021,0.,-0.00000344,-0.00001040,0.00000014,0
 .00009801,0.00001211,0.00000195,-0.00005458,0.00002418,-0.00000014,-0.
 00003819,-0.00004019,-0.00000972,-0.00002674,0.00003940,0.00002516,0.0
 0003890,0.00001585,-0.00001035|||@
 The archive entry for this job was punched.


 DON'T WORRY CHARLIE BROWN...WE LEARN MORE FROM LOSING 
 THAN WE DO FROM WINNING.
 THEN THAT MAKES ME THE SMARTEST PERSON IN THE WORLD...
 CHARLES SCHULZ 'PEANUTS'
 Job cpu time:       0 days  9 hours 25 minutes 20.0 seconds.
 Elapsed time:       0 days  9 hours 25 minutes 19.2 seconds.
 File lengths (MBytes):  RWF=    539 Int=      0 D2E=      0 Chk=     15 Scr=      1
 Normal termination of Gaussian 16 at Wed Aug 09 19:41:26 2023.
